1
Lattice="0.0 1.81563 1.81563 1.81563 0.0 1.81563 1.81563 1.81563 0.0" Properties=species:S:1:pos:R:3:forces:R:3 name=A1:FHI-aims/PBE/tight:elastic:s_e_0 energy=-3.699842546498985 pbc="T T T"
Cu       0.00000000       0.00000000       0.00000000       0.00000000       0.00000000       0.00000000
1
Lattice="0.0 1.815377 1.815377 1.815377 0.0 1.815377 1.815377 1.815377 0.0" Properties=species:S:1:pos:R:3:forces:R:3 name=A1:FHI-aims/PBE/tight:murnaghan:strain_1_0 energy=-3.699841306101007 pbc="T T T"
Cu       0.00000000       0.00000000       0.00000000       0.00000000       0.00000000       0.00000000
64
Lattice="0.0 7.262518 7.262518 7.262518 0.0 7.262518 7.262518 7.262518 0.0" Properties=species:S:1:pos:R:3:forces:R:3 name=A1:FHI-aims/PBE/tight:phonon:supercell_phonon_0 energy=-236.78960259305313 pbc="T T T"
Cu       0.00000000       0.00707100       0.00707100      -0.00000114      -0.04646389      -0.04646368
Cu       0.00000000       1.81563000       1.81563000      -0.00000386       0.01248513       0.01247929
Cu       7.26251800      10.89377700       3.63125900      -0.00000194       0.00006639       0.00006928
Cu       7.26251800      12.70940700       5.44688900       0.00000108       0.01183301       0.01182694
Cu       1.81563000       0.00000000       1.81563000       0.00651628      -0.00061828       0.00575702
Cu       1.81563000       1.81563000       3.63125900       0.00024024       0.00027048       0.00044213
Cu       9.07814800      10.89377700       5.44688900      -0.00025162       0.00043581       0.00026485
Cu       1.81563000       5.44688900       7.26251800      -0.00635935       0.00563986      -0.00058745
Cu       3.63125900       0.00000000       3.63125900       0.00006425       0.00003749       0.00000844
Cu      10.89377700       9.07814800       5.44688900      -0.00000771       0.00002548       0.00002486
Cu      10.89377700      10.89377700       7.26251800      -0.00006037       0.00001236       0.00003838
Cu      10.89377700      12.70940700       9.07814800       0.00000285       0.00002298       0.00002608
Cu       5.44688900       0.00000000       5.44688900       0.00636070      -0.00058713       0.00564277
Cu       5.44688900       1.81563000       7.26251800      -0.00651458       0.00575481      -0.00061725
Cu      12.70940700      10.89377700       9.07814800      -0.00024056       0.00043706       0.00026923
Cu       5.44688900       5.44688900      10.89377700       0.00025039       0.00026435       0.00043863
Cu       1.81563000       1.81563000       0.00000000       0.00651504       0.00575480      -0.00061781
Cu       1.81563000       3.63125900       1.81563000       0.00024100       0.00043809       0.00026922
Cu       1.81563000       5.44688900       3.63125900      -0.00025083       0.00026541       0.00043989
Cu       1.81563000       7.26251800       5.44688900      -0.00636062      -0.00058801       0.00564180
Cu       3.63125900       1.81563000       1.81563000       0.00032945       0.00018692       0.00018600
Cu       3.63125900       3.63125900       3.63125900      -0.00000388      -0.00008804      -0.00008720
Cu       3.63125900       5.44688900       5.44688900      -0.00032711       0.00018648       0.00018522
Cu       3.63125900       7.26251800       7.26251800      -0.00000569      -0.00021876      -0.00022169
Cu       5.44688900       1.81563000       3.63125900       0.00008027      -0.00006456       0.00011518
Cu       5.44688900       3.63125900       5.44688900      -0.00008898       0.00011754      -0.00005663
Cu       5.44688900       5.44688900       7.26251800       0.00007249      -0.00012958       0.00007946
Cu       5.44688900       7.26251800       9.07814800      -0.00006275       0.00008121      -0.00008783
Cu       7.26251800       1.81563000       5.44688900      -0.00000144      -0.00075409      -0.00071642
Cu       7.26251800       3.63125900       7.26251800      -0.00000392       0.00042179      -0.00021129
Cu       7.26251800       5.44688900       9.07814800      -0.00000114      -0.00017588      -0.00016053
Cu       7.26251800       7.26251800      10.89377700       0.00000176      -0.00023140       0.00044099
Cu       3.63125900       3.63125900       0.00000000       0.00005970       0.00001243       0.00003827
Cu       3.63125900       5.44688900       1.81563000      -0.00000320       0.00002413       0.00002667
Cu       3.63125900       7.26251800       3.63125900      -0.00006481       0.00003782       0.00000728
Cu       3.63125900       9.07814800       5.44688900       0.00000764       0.00002478       0.00002363
Cu       5.44688900       3.63125900       1.81563000       0.00007955       0.00011619      -0.00006378
Cu       5.44688900       5.44688900       3.63125900      -0.00008978      -0.00005723       0.00011632
Cu       5.44688900       7.26251800       5.44688900       0.00007178       0.00007831      -0.00013026
Cu       5.44688900       9.07814800       7.26251800      -0.00006380      -0.00008736       0.00008149
Cu       7.26251800       3.63125900       3.63125900       0.00000123      -0.00002049      -0.00002116
Cu       7.26251800       5.44688900       5.44688900      -0.00000158      -0.00004342      -0.00004409
Cu       7.26251800       7.26251800       7.26251800       0.00000134      -0.00027054      -0.00027094
Cu       7.26251800       9.07814800       9.07814800       0.00000414      -0.00004553      -0.00004635
Cu       9.07814800       3.63125900       5.44688900       0.00008823       0.00011707      -0.00005785
Cu       9.07814800       5.44688900       7.26251800      -0.00007313      -0.00012932       0.00007966
Cu       9.07814800       7.26251800       9.07814800       0.00006162       0.00008106      -0.00008778
Cu       9.07814800       9.07814800      10.89377700      -0.00008071      -0.00006409       0.00011377
Cu       5.44688900       5.44688900       0.00000000       0.00635908       0.00564038      -0.00058753
Cu       5.44688900       7.26251800       1.81563000      -0.00651573      -0.00061761       0.00575746
Cu       5.44688900       9.07814800       3.63125900      -0.00023995       0.00027001       0.00044104
Cu       5.44688900      10.89377700       5.44688900       0.00025111       0.00043531       0.00026353
Cu       7.26251800       5.44688900       1.81563000       0.00000058      -0.00071769      -0.00075263
Cu       7.26251800       7.26251800       3.63125900      -0.00000158      -0.00021149       0.00042594
Cu       7.26251800       9.07814800       5.44688900       0.00000036      -0.00015788      -0.00017844
Cu       7.26251800      10.89377700       7.26251800       0.00000315       0.00043638      -0.00023111
Cu       9.07814800       5.44688900       3.63125900       0.00008944      -0.00005800       0.00011574
Cu       9.07814800       7.26251800       5.44688900      -0.00007197       0.00007835      -0.00013009
Cu       9.07814800       9.07814800       7.26251800       0.00006329      -0.00008659       0.00008234
Cu       9.07814800      10.89377700       9.07814800      -0.00007984       0.00011500      -0.00006465
Cu      10.89377700       5.44688900       5.44688900       0.00032754       0.00018677       0.00018523
Cu      10.89377700       7.26251800       7.26251800       0.00000508      -0.00021730      -0.00022105
Cu      10.89377700       9.07814800       9.07814800      -0.00033001       0.00018747       0.00018542
Cu      10.89377700      10.89377700      10.89377700       0.00000295      -0.00008865      -0.00008912
1
Lattice="0.0 1.8274 1.8274 1.8274 0.0 1.8274 1.8274 1.8274 0.0" Properties=species:S:1:pos:R:3:forces:R:3 name=A1:FHI-aims/PBE/tight:murnaghan:strain_1_02 energy=-3.697932280898385 pbc="T T T"
Cu       0.00000000       0.00000000       0.00000000       0.00000000       0.00000000       0.00000000
64
Lattice="0.0 7.3096 7.3096 7.3096 0.0 7.3096 7.3096 7.3096 0.0" Properties=species:S:1:pos:R:3:forces:R:3 name=A1:FHI-aims/PBE/tight:qha:phonopy_strain_1_02:supercell_phonon_0 energy=-236.66737150307745 pbc="T T T"
Cu       0.00000000       0.00707100       0.00707100      -0.00000180      -0.04267866      -0.04267881
Cu       0.00000000       1.82740000       1.82740000      -0.00000258       0.01135185       0.01134629
Cu       0.00000000       3.65480000       3.65480000      -0.00000191      -0.00001129      -0.00000894
Cu       0.00000000       5.48220000       5.48220000      -0.00000273       0.01074466       0.01073882
Cu       1.82740000       0.00000000       1.82740000       0.00591005      -0.00053062       0.00526374
Cu       1.82740000       1.82740000       3.65480000       0.00023068       0.00027969       0.00044841
Cu       1.82740000       3.65480000       5.48220000      -0.00023761       0.00043740       0.00027179
Cu       1.82740000       5.48220000       7.30960000      -0.00575676       0.00515999      -0.00049419
Cu       3.65480000       0.00000000       3.65480000       0.00000439       0.00007896      -0.00001777
Cu       3.65480000       1.82740000       5.48220000      -0.00000355       0.00004142       0.00004555
Cu       3.65480000       3.65480000       7.30960000       0.00000201      -0.00001351       0.00007808
Cu       3.65480000       5.48220000       9.13700000       0.00000079       0.00004472       0.00004267
Cu       5.48220000       0.00000000       5.48220000       0.00575980      -0.00049449       0.00516251
Cu       5.48220000       1.82740000       7.30960000      -0.00590731       0.00526126      -0.00053080
Cu      12.79180000      10.96440000       9.13700000      -0.00022987       0.00044528       0.00027813
Cu       5.48220000       5.48220000      10.96440000       0.00023889       0.00027298       0.00044082
Cu       1.82740000       1.82740000       0.00000000       0.00590856       0.00526116      -0.00053020
Cu       1.82740000       3.65480000       1.82740000       0.00023153       0.00044500       0.00027876
Cu       1.82740000       5.48220000       3.65480000      -0.00023599       0.00027276       0.00044109
Cu       1.82740000       7.30960000       5.48220000      -0.00575886      -0.00049476       0.00516202
Cu       3.65480000       1.82740000       1.82740000       0.00031783       0.00019160       0.00019020
Cu       3.65480000       3.65480000       3.65480000      -0.00002738      -0.00017074      -0.00017087
Cu       3.65480000       5.48220000       5.48220000      -0.00031201       0.00019463       0.00019361
Cu       3.65480000       7.30960000       7.30960000      -0.00000523      -0.00020762      -0.00021004
Cu       5.48220000       1.82740000       3.65480000       0.00008256      -0.00004244       0.00013219
Cu       5.48220000       3.65480000       5.48220000      -0.00008380       0.00013038      -0.00003877
Cu       5.48220000       5.48220000       7.30960000       0.00007098      -0.00017749       0.00017056
Cu       5.48220000       7.30960000       9.13700000      -0.00009274       0.00012853      -0.00019364
Cu       7.30960000       1.82740000       5.48220000      -0.00000350      -0.00063625      -0.00059536
Cu       7.30960000       3.65480000       7.30960000      -0.00000215       0.00044308      -0.00020730
Cu       7.30960000       5.48220000       9.13700000      -0.00000196      -0.00026637      -0.00025967
Cu       7.30960000       7.30960000      10.96440000      -0.00000242      -0.00021731       0.00046204
Cu       3.65480000       3.65480000       0.00000000      -0.00000008      -0.00001372       0.00007865
Cu       3.65480000       5.48220000       1.82740000       0.00000152       0.00004426       0.00004272
Cu       3.65480000       7.30960000       3.65480000      -0.00000193       0.00007723      -0.00001740
Cu      10.96440000       9.13700000      12.79180000       0.00000540       0.00004189       0.00004602
Cu       5.48220000       3.65480000       1.82740000       0.00008154       0.00013378      -0.00004281
Cu       5.48220000       5.48220000       3.65480000      -0.00008505      -0.00003912       0.00012860
Cu       5.48220000       7.30960000       5.48220000       0.00007090       0.00016915      -0.00017777
Cu       5.48220000       9.13700000       7.30960000      -0.00009330      -0.00019306       0.00012902
Cu       7.30960000       3.65480000       3.65480000      -0.00000231      -0.00001267      -0.00001296
Cu       7.30960000       5.48220000       5.48220000      -0.00000266      -0.00010480      -0.00010565
Cu       7.30960000       7.30960000       7.30960000      -0.00000204      -0.00009814      -0.00009888
Cu       7.30960000       9.13700000       9.13700000      -0.00000239      -0.00010685      -0.00010701
Cu       9.13700000      10.96440000      12.79180000       0.00008496       0.00013035      -0.00003869
Cu       9.13700000       5.48220000       7.30960000      -0.00007089      -0.00017703       0.00017085
Cu       9.13700000       7.30960000       9.13700000       0.00009340       0.00012719      -0.00019343
Cu       9.13700000       9.13700000      10.96440000      -0.00008165      -0.00004294       0.00013226
Cu       5.48220000       5.48220000       0.00000000       0.00575895       0.00516012      -0.00049421
Cu       5.48220000       7.30960000       1.82740000      -0.00590868      -0.00053210       0.00526415
Cu      12.79180000       9.13700000      10.96440000      -0.00022948       0.00027938       0.00044828
Cu       5.48220000      10.96440000       5.48220000       0.00023923       0.00043719       0.00027169
Cu       7.30960000       5.48220000       1.82740000      -0.00000185      -0.00059670      -0.00063483
Cu       7.30960000       7.30960000       3.65480000      -0.00000198      -0.00020776       0.00044661
Cu       7.30960000       9.13700000       5.48220000      -0.00000172      -0.00025771      -0.00026815
Cu       7.30960000      10.96440000       7.30960000      -0.00000188       0.00045812      -0.00021688
Cu       9.13700000      12.79180000      10.96440000       0.00008613      -0.00003914       0.00012902
Cu       9.13700000       7.30960000       5.48220000      -0.00007045       0.00017029      -0.00017789
Cu       9.13700000       9.13700000       7.30960000       0.00009406      -0.00019276       0.00012894
Cu       9.13700000      10.96440000       9.13700000      -0.00008036       0.00013387      -0.00004285
Cu      10.96440000       5.48220000       5.48220000       0.00031430       0.00019544       0.00019383
Cu      10.96440000       7.30960000       7.30960000       0.00000671      -0.00020762      -0.00021005
Cu      10.96440000       9.13700000       9.13700000      -0.00031561       0.00019141       0.00018952
Cu      10.96440000      10.96440000      10.96440000       0.00002929      -0.00017134      -0.00017161
1
Lattice="0.0 1.803193 1.803193 1.803193 0.0 1.803193 1.803193 1.803193 0.0" Properties=species:S:1:pos:R:3:forces:R:3 name=A1:FHI-aims/PBE/tight:murnaghan:strain_0_98 energy=-3.6975587302003987 pbc="T T T"
Cu       0.00000000       0.00000000       0.00000000       0.00000000       0.00000000       0.00000000
2
Lattice="2.54 0.0 0.0 0.0 2.54 0.0 0.0 0.0 3.681905" Properties=species:S:1:pos:R:3:forces:R:3 name=fcc_100surf_X110_Y-110_Z001_2at_d1.05 energy=-7.393032766209217 pbc="T T T"
Cu       1.27000000       1.27000000       0.00000000       0.00000014       0.00000001      -0.30059255
Cu       0.00000000       0.00000000       1.79605100      -0.00000014      -0.00000001       0.30059255
2
Lattice="0.0 -1.467327 4.279923 1.270743 0.733664 4.279923 -1.270743 0.733664 4.279923" Properties=species:S:1:pos:R:3:forces:R:3 name=A1:FHI-aims/PBE/tight:tp:trigonal:tp_4_12500 energy=-7.391491191505338 pbc="T T T"
Cu       0.00000000       0.00000000       0.00000000       0.00000000       0.00000000       0.00000000
Cu       0.00000000       0.00000000       6.41988400       0.00000000       0.00000000       0.00000000
2
Lattice="3.663945 0.0 0.0 0.0 2.5908 0.0 0.0 0.0 2.5908" Properties=species:S:1:pos:R:3:forces:R:3 name=fcc_110surf_X100_Y01-1_Z011_2at_d1.00 energy=-7.391475185198942 pbc="T T T"
Cu       0.00000000       0.00000000       0.00000000      -0.00000010      -0.00000007      -0.00000004
Cu       1.83197200       1.29540000       1.29540000       0.00000010       0.00000007       0.00000004
2
Lattice="3.592102 0.0 0.0 0.0 2.54 0.0 0.0 0.0 2.54" Properties=species:S:1:pos:R:3:forces:R:3 name=fcc_110surf_X100_Y01-1_Z011_2at_d1.00 energy=-7.388560741499532 pbc="T T T"
Cu       0.00000000       0.00000000       0.00000000      -0.00000001      -0.00000000       0.00000000
Cu       1.79605100       1.27000000       1.27000000       0.00000001       0.00000000      -0.00000000
6
Lattice="3.663945 0.0 0.0 0.0 2.5908 0.0 0.0 0.0 7.7724" Properties=species:S:1:pos:R:3:forces:R:3 name=fcc_110surf_X100_Y01-1_Z011_6at_d1.00 energy=-22.16453978320351 pbc="T T T"
Cu       0.00000000       0.00000000       0.00000000       0.00000000      -0.00000001       0.00000018
Cu       1.83197200       1.29540000       1.29540000      -0.00000000       0.00000000       0.00000066
Cu       0.00000000       0.00000000       2.59080000       0.00000000      -0.00000002       0.00000030
Cu       1.83197200       1.29540000       3.88620000       0.00000000       0.00000001      -0.00000031
Cu       0.00000000       0.00000000       5.18160000      -0.00000000      -0.00000001      -0.00000066
Cu       1.83197200       1.29540000       6.47700000       0.00000000       0.00000003      -0.00000017
1
Lattice="0.0 1.845642 1.81563 1.845642 0.0 1.81563 1.845642 1.845642 0.0" Properties=species:S:1:pos:R:3:forces:R:3 name=A1:FHI-aims/PBE/tight:elastic:s_08_e_0_01667 energy=-3.694085435505258 pbc="T T T"
Cu       0.00000000       0.00000000       0.00000000       0.00000000       0.00000000       0.00000000
6
Lattice="2.54 0.0 0.0 0.0 2.54 0.0 0.0 0.0 10.86611" Properties=species:S:1:pos:R:3:forces:R:3 name=fcc_100surf_X110_Y-110_Z001_6at_d1.05 energy=-22.16320064017782 pbc="T T T"
Cu       0.00000000       0.00000000       0.00000000       0.00000008      -0.00000013      -0.31969034
Cu       1.27000000       1.27000000       1.79605100      -0.00000001       0.00000002      -0.01710833
Cu       0.00000000       0.00000000       3.59210200      -0.00000006      -0.00000002       0.00153773
Cu       1.27000000       1.27000000       5.38815400      -0.00000020       0.00000002      -0.00153755
Cu       0.00000000       0.00000000       7.18420500       0.00000027       0.00000009       0.01710841
Cu       1.27000000       1.27000000       8.98025600      -0.00000008       0.00000002       0.31969007
1
Lattice="0.0 1.785113 1.81563 1.785113 0.0 1.81563 1.785113 1.785113 0.0" Properties=species:S:1:pos:R:3:forces:R:3 name=A1:FHI-aims/PBE/tight:elastic:s_08_e_m0_01667 energy=-3.693166919205396 pbc="T T T"
Cu       0.00000000       0.00000000       0.00000000       0.00000000       0.00000000       0.00000000
4
Lattice="2.584722 0.0 0.0 -1.292359 2.238436 0.0 0.0 0.0 8.459361" Properties=species:S:1:pos:R:3:forces:R:3 name=A3p:FHI-aims/PBE/tight:murnaghan:strain_1_02 energy=-14.772479961800855 pbc="T T T"
Cu       0.00000000       0.00000000       0.00000000       0.00000000       0.00000000       0.00000000
Cu       0.00000000       0.00000000       4.22968100       0.00000000       0.00000000       0.00000000
Cu       1.29236200       0.74614500       6.34452100      -0.00000000       0.00000000       0.00000000
Cu       0.00000100       1.49229000       2.11484000       0.00000000       0.00000000       0.00000000
2
Lattice="2.5616243 0.0 0.0 -1.28081216 2.21843142 0.0 0.0 0.0 4.21560554" Properties=species:S:1:pos:R:3:forces:R:3 name=A3:FHI-aims/PBE/tight:elastic:s_e_0 energy=-7.385130644310266 pbc="T T T"
Cu       1.28081194       0.73947711       1.05390139      -0.00000000       0.00000000       0.00000000
Cu       0.00000000       1.47895422       3.16170416       0.00000000      -0.00000000      -0.00000000
2
Lattice="2.56275613 0.0 0.0 -1.28137807 2.21941161 0.0 0.0 0.0 4.21746817" Properties=species:S:1:pos:R:3:forces:R:3 name=A3:FHI-aims/PBE/tight:murnaghan:strain_1_0 energy=-7.385113035998074 pbc="T T T"
Cu       1.28137786       0.73980384       1.05436704      -0.00000000       0.00000000       0.00000000
Cu       0.00000000       1.47960768       3.16310113       0.00000000       0.00000000       0.00000000
1
Lattice="0.0 1.839267 1.839267 1.839267 0.0 1.839267 1.839267 1.839267 0.0" Properties=species:S:1:pos:R:3:forces:R:3 name=A1:FHI-aims/PBE/tight:murnaghan:strain_1_04 energy=-3.6923078268009704 pbc="T T T"
Cu       0.00000000       0.00000000       0.00000000       0.00000000       0.00000000       0.00000000
1
Lattice="0.0 1.839267 1.839267 1.839267 0.0 1.839267 1.839267 1.839267 0.0" Properties=species:S:1:pos:R:3:forces:R:3 name=A1:FHI-aims/PBE/tight:qha:murnaghan:strain_1_04 energy=-3.6923078268009704 pbc="T T T"
Cu       0.00000000       0.00000000       0.00000000       0.00000000       0.00000000       0.00000000
64
Lattice="0.0 7.357066 7.357066 7.357066 0.0 7.357066 7.357066 7.357066 0.0" Properties=species:S:1:pos:R:3:forces:R:3 name=A1:FHI-aims/PBE/tight:qha:phonopy_strain_1_04:supercell_phonon_0 energy=-236.30743190273643 pbc="T T T"
Cu       0.00000000       0.00707100       0.00707100      -0.00000024      -0.03896259      -0.03896260
Cu       0.00000000       1.83926700       1.83926700       0.00000472       0.01017201       0.01016671
Cu       0.00000000       3.67853300       3.67853300       0.00000378       0.00000628       0.00000745
Cu       0.00000000       5.51780000       5.51780000      -0.00000217       0.00963600       0.00963097
Cu       1.83926700       0.00000000       1.83926700       0.00525742      -0.00043135       0.00473735
Cu       1.83926700       1.83926700       3.67853300       0.00022755       0.00026412       0.00043068
Cu       9.19633300      11.03559900       5.51780000      -0.00024324       0.00043533       0.00026720
Cu       1.83926700       5.51780000       7.35706600      -0.00514238       0.00464134      -0.00040608
Cu       3.67853300       0.00000000       3.67853300       0.00003014       0.00001395      -0.00001565
Cu      11.03559900       9.19633300       5.51780000       0.00000100       0.00003164       0.00003917
Cu       3.67853300       3.67853300       7.35706600      -0.00002020      -0.00001006       0.00001311
Cu       3.67853300       5.51780000       9.19633300      -0.00000684       0.00004028       0.00003250
Cu       5.51780000       0.00000000       5.51780000       0.00514283      -0.00040558       0.00464214
Cu       5.51780000       1.83926700       7.35706600      -0.00525755       0.00473432      -0.00043319
Cu       5.51780000       3.67853300       9.19633300      -0.00023016       0.00042812       0.00026213
Cu       5.51780000       5.51780000      11.03559900       0.00024151       0.00026975       0.00043781
Cu       1.83926700       1.83926700       0.00000000       0.00525649       0.00473524      -0.00043048
Cu       1.83926700       3.67853300       1.83926700       0.00022929       0.00042821       0.00026298
Cu       1.83926700       5.51780000       3.67853300      -0.00024142       0.00026806       0.00043798
Cu       1.83926700       7.35706600       5.51780000      -0.00514335      -0.00040629       0.00464248
Cu       3.67853300       1.83926700       1.83926700       0.00033294       0.00017406       0.00017365
Cu       3.67853300       3.67853300       3.67853300       0.00002870      -0.00006553      -0.00006477
Cu       3.67853300       5.51780000       5.51780000      -0.00032720       0.00017778       0.00017595
Cu       3.67853300       7.35706600       7.35706600      -0.00000740      -0.00021862      -0.00022104
Cu       5.51780000       1.83926700       3.67853300       0.00009620      -0.00006095       0.00010330
Cu       5.51780000       3.67853300       5.51780000      -0.00008494       0.00010693      -0.00005697
Cu       5.51780000       5.51780000       7.35706600       0.00001987      -0.00008340       0.00005163
Cu       5.51780000       7.35706600       9.19633300       0.00001459       0.00009598      -0.00006533
Cu       7.35706600       1.83926700       5.51780000      -0.00000268      -0.00051991      -0.00048736
Cu       7.35706600       3.67853300       7.35706600       0.00000353       0.00036314      -0.00022481
Cu       7.35706600       5.51780000       9.19633300       0.00000151      -0.00005856      -0.00008646
Cu       7.35706600       7.35706600      11.03559900      -0.00000298      -0.00022191       0.00038373
Cu       3.67853300       3.67853300       0.00000000       0.00002770      -0.00001073       0.00001507
Cu       3.67853300       5.51780000       1.83926700       0.00000575       0.00003873       0.00003235
Cu       3.67853300       7.35706600       3.67853300      -0.00002398       0.00001153      -0.00001334
Cu       3.67853300       9.19633300       5.51780000      -0.00000132       0.00003163       0.00004104
Cu       5.51780000       3.67853300       1.83926700       0.00009500       0.00010438      -0.00006168
Cu       5.51780000       5.51780000       3.67853300      -0.00008586      -0.00005693       0.00010608
Cu       5.51780000       7.35706600       5.51780000       0.00001841       0.00004892      -0.00008356
Cu       5.51780000       9.19633300       7.35706600       0.00001348      -0.00006545       0.00009739
Cu       7.35706600       3.67853300       3.67853300      -0.00000330      -0.00004931      -0.00005011
Cu       7.35706600       5.51780000       5.51780000       0.00000055      -0.00007532      -0.00007608
Cu       7.35706600       7.35706600       7.35706600       0.00000080      -0.00012064      -0.00012061
Cu       7.35706600       9.19633300       9.19633300      -0.00000499      -0.00007346      -0.00007466
Cu       9.19633300       3.67853300       5.51780000       0.00008502       0.00010797      -0.00005504
Cu       9.19633300       5.51780000       7.35706600      -0.00001981      -0.00008482       0.00005169
Cu       9.19633300       7.35706600       9.19633300      -0.00001343       0.00009399      -0.00006536
Cu       9.19633300       9.19633300      11.03559900      -0.00009648      -0.00006221       0.00010412
Cu       5.51780000       5.51780000       0.00000000       0.00514103       0.00463959      -0.00040682
Cu       5.51780000       7.35706600       1.83926700      -0.00525876      -0.00043461       0.00473584
Cu       5.51780000       9.19633300       3.67853300      -0.00022780       0.00026314       0.00043065
Cu       5.51780000      11.03559900       5.51780000       0.00024344       0.00043577       0.00026881
Cu       7.35706600       5.51780000       1.83926700      -0.00000254      -0.00048860      -0.00051890
Cu       7.35706600       7.35706600       3.67853300       0.00000300      -0.00022524       0.00036612
Cu       7.35706600       9.19633300       5.51780000       0.00000106      -0.00008471      -0.00006087
Cu       7.35706600      11.03559900       7.35706600      -0.00000333       0.00038042      -0.00022189
Cu       9.19633300       5.51780000       3.67853300       0.00008529      -0.00005567       0.00010590
Cu       9.19633300       7.35706600       5.51780000      -0.00001913       0.00005019      -0.00008400
Cu       9.19633300       9.19633300       7.35706600      -0.00001326      -0.00006553       0.00009600
Cu       9.19633300      11.03559900       9.19633300      -0.00009577       0.00010427      -0.00006218
Cu      11.03559900       5.51780000       5.51780000       0.00032693       0.00017784       0.00017667
Cu      11.03559900       7.35706600       7.35706600       0.00000643      -0.00021956      -0.00022249
Cu      11.03559900       9.19633300       9.19633300      -0.00033368       0.00017279       0.00017148
Cu      11.03559900      11.03559900      11.03559900      -0.00002976      -0.00006611      -0.00006582
4
Lattice="1.2954 -2.243699 0.0 1.2954 2.243699 0.0 0.0 0.0 8.461553" Properties=species:S:1:pos:R:3:forces:R:3 name=dhcp energy=-14.76858027081471 pbc="T T T"
Cu       0.00000000       0.00000000       0.00000000       0.00000038       0.00000003      -0.00000134
Cu       1.29540000       0.74790000       6.34616500      -0.00000011      -0.00002271       0.00001316
Cu       0.00000000       0.00000000       4.23077600      -0.00000012       0.00000010       0.00000008
Cu       1.29540000      -0.74790000       2.11538800      -0.00000015       0.00002258      -0.00001190
4
Lattice="1.274079 -2.197091 -0.033342 1.329213 2.196722 0.019975 0.085494 -0.064598 8.370994" Properties=species:S:1:pos:R:3:forces:R:3 name=dhcp.shakesmall.24 energy=-14.768368271819782 pbc="T T T"
Cu       2.65927000      -0.01538100       8.34254400       0.04404983      -0.07385438      -0.07614688
Cu       1.42151100       0.69871100       6.25001700      -0.12112770      -0.04031724       0.13199403
Cu       2.62054400      -0.04974300       4.16039600       0.03436840       0.03424409      -0.12501854
Cu       1.26783400      -0.75671200       2.05414800       0.04270948       0.07992753       0.06917139
6
Lattice="2.5908 0.0 0.0 0.0 2.5908 0.0 0.0 0.0 11.083432" Properties=species:S:1:pos:R:3:forces:R:3 name=fcc_100surf_X110_Y-110_Z001_6at_d1.05 energy=-22.15073695918545 pbc="T T T"
Cu       0.00000000       0.00000000       0.00000000       0.00000021      -0.00000022      -0.24622587
Cu       1.29540000       1.29540000       1.83197200       0.00000037       0.00000064      -0.01496730
Cu       0.00000000       0.00000000       3.66394500      -0.00000015      -0.00000022       0.00251346
Cu       1.29540000       1.29540000       5.49591700       0.00000006      -0.00000025      -0.00251336
Cu       0.00000000       0.00000000       7.32788900      -0.00000006       0.00000020       0.01496730
Cu       1.29540000       1.29540000       9.15986100      -0.00000043      -0.00000015       0.24622577
96