200
Lattice="0.0 24.41283 0.0 19.851766 0.0 0.0 0.0 0.0 21.142131" Properties=species:S:1:pos:R:3:forces:R:3 energy=-31544.01120658 pbc="T T T"
C       10.00000949      14.36538803       1.86797070       0.00002000       0.25332000       2.48554000
C       10.00000949       0.35667145       4.34832322       0.00001000       0.07994000       0.45315000
C       10.00000949      21.89979769       7.57163138      -0.00002000       1.14000000       0.48037000
C       10.00000949      22.02479138      19.09730637       0.00002000      -1.34260000      -0.75269000
C       10.00000949      14.23490146       4.49027149       0.00000000      -1.20395000       0.84120000
C       10.00000949      18.48170854      16.52130685       0.00000000      -0.64912000      -1.12542000
C       10.00000949       1.40420157       2.18911967       0.00002000      -0.37804000       1.84348000
C       10.00000949      22.91930189      17.04569512       0.00002000      -0.67929000      -1.05720000
C       10.00000949       4.10274697       8.27756713       0.00001000       0.13212000       0.88539000
C       10.00000949      20.76840950      16.41250944      -0.00002000       1.35683000      -0.39377000
C       10.00000949       7.09383132       4.66456722       0.00001000      -0.15105000       0.44406000
C       10.00000949       1.06867163      16.00770106      -0.00001000       0.62043000       1.18665000
C       10.00000949       1.61676408       5.14041316      -0.00001000       1.13185000      -0.93167000
C       10.00000949       5.09993784      12.23759398       0.00002000      -0.01406000       0.75267000
C       10.00000949       1.22986955       0.87078095      -0.00001000       0.53572000      -1.85065000
C       10.00000949      21.58628813      17.65359482       0.00003000       2.04378000      -0.35909000
C       10.00000949      17.46369353      20.28329535      -0.00002000       0.91127000      -0.53445000
C       10.00000949       3.13795193      18.38720562      -0.00003000      -0.68202000      -0.81679000
C       10.00000949      23.97210518       9.00098743       0.00000000      -0.64909000      -1.40668000
C       10.00000949       1.30476811       7.52399815       0.00000000       0.42223000       1.64834000
C       10.00000949      14.34090197       8.09644249       0.00001000       0.56170000      -0.88931000
C       10.00000949      20.52520889       4.08886699       0.00000000      -0.54275000      -0.76457000
C       10.00000949      24.38060506       0.29643382       0.00000000      -0.25331000      -0.45751000
C       10.00000949      15.78470114       2.09349381       0.00002000       0.90843000      -2.91414000
C       10.00000949      20.86410779      11.98090736       0.00001000      -0.65450000       0.78535000
C       10.00000949      19.76679991       0.76479545      -0.00003000      -0.93079000      -0.55073000
C       10.00000949      23.35118926      11.12699783       0.00001000      -0.32925000      -2.40754000
C       10.00000949      24.27699701       7.62030056       0.00001000      -0.98159000       0.06722000
C       10.00000949      17.48730073      10.96910840       0.00000000      -1.26298000      -1.05873000
C       10.00000949      18.45839429      11.96149889       0.00001000       1.17602000       0.56366000
C       10.00000949      22.99649525      15.68849717       0.00001000      -0.43529000      -0.30361000
C       10.00000949      14.81260667      14.63500592      -0.00001000       0.98497000      -0.26573000
C       10.00000949      21.22309846       5.35796569       0.00001000       0.03521000       0.10916000
C       10.00000949       0.81331343      17.43390693      -0.00001000      -0.28765000      -0.38785000
C       10.00000949      23.46229205      19.16350239       0.00000000       0.96311000      -0.56356000
C       10.00000949      21.28020007       2.88330040      -0.00001000       0.04253000       1.30776000
C       10.00000949      16.33699260      16.40809074      -0.00002000      -1.51320000       0.79024000
C       10.00000949      18.60609191      19.43359311       0.00001000      -0.97838000       0.76943000
C       10.00000949      13.92690919       3.15009295       0.00000000      -1.99444000      -1.23801000
C       10.00000949      14.99680147       5.69080626      -0.00001000      -0.82300000      -0.33445000
C       10.00000949      15.50820143      12.41389821       0.00000000      -0.21699000      -0.95394000
C       10.00000949      19.65100986       7.35885697      -0.00001000       0.51453000      -0.02115000
C       10.00000949      19.14200235       3.96660205      -0.00001000       0.49793000       0.72127000
C       10.00000949      18.26680240       2.80668132       0.00001000      -0.86796000       0.44270000
C       10.00000949      11.81749421       8.09086097      -0.00001000      -1.72193000      -0.53362000
C       10.00000949      12.84490816       6.28132712       0.00001000      -0.46761000      -1.79603000
C       10.00000949      17.19358998       7.08654632       0.00001000       0.09442000      -1.35731000
C       10.00000949       3.05914731       9.35427243      -0.00001000      -0.92182000      -0.04354000
C       10.00000949      17.03180615       4.68945151       0.00001000       0.63616000       0.32143000
C       10.00000949      21.57889104       8.90901916       0.00000000       0.42895000       0.00822000
C       10.00000949      14.80809029      19.69480414       0.00000000       0.25076000      -0.63529000
C       10.00000949      19.42660712      14.22169840      -0.00001000      -0.54315000      -1.96064000
C       10.00000949      22.37870418      12.03579234       0.00002000       0.25288000       1.85126000
C       10.00000949      15.28250482      18.35959400       0.00001000      -0.76457000      -1.37768000
C       10.00000949      13.29859619      19.77410827      -0.00001000      -0.28148000      -0.58595000
C       10.00000949      17.38908792      15.61699448       0.00000000      -0.08563000      -0.30388000
C       10.00000949      18.36970247       5.12072984      -0.00001000      -0.05037000      -0.60528000
C       10.00000949       2.27058849      21.09870506       0.00001000       0.15086000       0.85459000
C       10.00000949      12.48489215      18.64029807      -0.00002000       1.22041000      -0.02664000
C       10.00000949      14.37569025      17.24170382       0.00000000       0.37596000       1.20209000
C       10.00000949       6.72524641      20.36230350       0.00002000      -1.25474000      -0.04205000
C       10.00000949      15.96479459      20.51239149      -0.00001000      -2.22231000       0.34417000
C       10.00000949       9.69274796       5.13690357       0.00001000      -0.21112000      -0.15646000
C       10.00000949      11.43789911      10.11310580      -0.00001000      -1.18576000      -0.48939000
C       10.00000949       8.12158705       6.61600705       0.00002000      -0.49515000      -0.65910000
C       10.00000949      10.74550243       8.94345969      -0.00002000       0.85056000       1.03635000
C       10.00000949      20.48409768      13.36110796       0.00001000       0.91370000      -0.43753000
C       10.00000949      16.95471043       8.46399844       0.00000000      -0.43721000       0.29366000
C       10.00000949      14.03859789      10.66320291       0.00000000      -1.02306000       0.45650000
C       10.00000949      18.28870070      13.39408968       0.00001000       0.10312000       0.39206000
C       10.00000949      12.24379104      16.29350039       0.00000000      -0.52942000      -0.54871000
C       10.00000949      23.09370714       6.89408950       0.00000000       0.60692000       0.16938000
C       10.00000949      19.56920246      15.68390932       0.00000000      -0.30423000       3.14616000
C       10.00000949      17.16639408      14.22649767      -0.00001000       0.97024000      -0.28727000
C       10.00000949       6.78657144      18.12149132       0.00000000       1.21331000      -0.30989000
C       10.00000949      19.85729827      20.43080400       0.00000000       0.07039000      -0.41418000
C       10.00000949      16.17821155      11.19680915      -0.00002000       0.26373000       0.36597000
C       10.00000949       9.89039423       0.63904205      -0.00001000       1.71876000       1.51037000
C       10.00000949      22.60239894       3.27605777       0.00001000       0.35349000      -0.92209000
C       10.00000949      18.50328948       6.56148150       0.00002000      -0.39008000       0.15663000
C       10.00000949      12.86080091       9.99919200      -0.00001000      -0.19156000      -0.78261000
C       10.00000949       8.20341885      10.56370804      -0.00001000      -1.27539000      -0.58741000
C       10.00000949      12.89290378       4.97112812       0.00002000       0.88927000       1.48674000
C       10.00000949      10.63049359       1.79217616      -0.00002000      -2.29679000      -0.73833000
C       10.00000949      19.69009480      11.21139722       0.00000000      -0.09574000       0.12697000
C       10.00000949      16.32390732       5.88618069       0.00002000       0.30892000       0.45858000
C       10.00000949       8.45792260       1.04845942       0.00000000      -0.41411000       0.07184000
C       10.00000949       7.17483309       0.52003300      -0.00002000       0.52183000      -0.04177000
C       10.00000949       8.11104070       9.16828511       0.00001000       1.28614000       0.69205000
C       10.00000949      12.53979661      14.96689509       0.00001000      -0.45764000      -0.88206000
C       10.00000949      16.60008967      17.79190664       0.00000000       0.76175000       0.42125000
C       10.00000949      19.29980688       9.80121708       0.00001000      -0.51414000       0.37367000
C       10.00000949      18.05021177      17.98709079      -0.00001000       0.02837000      -0.53736000
C       10.00000949      13.02719876      17.38050191      -0.00001000       1.13998000       0.00259000
C       10.00000949      13.10649163       0.97334143       0.00000000      -2.12411000      -0.22735000
C       10.00000949       9.53023175      12.90659443       0.00000000       2.78572000      -0.85174000
C       10.00000949       4.78388934      13.50229511       0.00002000       1.23149000       1.18096000
C       10.00000949       4.43434644      11.07500933      -0.00001000       0.53270000       1.00411000
C       10.00000949      10.25849088      15.12379085       0.00001000       1.35083000      -0.03212000
C       10.00000949       4.78447525      15.67420509      -0.00001000       1.79109000       2.60704000
C       10.00000949       1.77996385      18.51879424      -0.00001000       0.99747000       1.59603000
C       10.00000949       8.99246593      17.73499202      -0.00001000       0.00565000       2.63016000
C       10.00000949       6.07010370       5.77406397       0.00000000      -0.25319000       0.48784000
C       10.00000949       6.00265105       1.26709020       0.00000000      -0.67699000      -0.16546000
C       10.00000949      17.89970667       9.60628664      -0.00001000      -0.38593000       0.46687000
C       10.00000949      15.56190966       8.80705066       0.00001000       0.50924000       0.15892000
C       10.00000949      14.18580726      12.00908982       0.00000000       1.24212000      -0.14161000
C       10.00000949      10.31468922      17.50989175       0.00001000       0.17712000      -0.92613000
C       10.00000949      10.77870388      11.23609123       0.00000000       2.11264000      -3.64352000
C       10.00000949       7.19438776       3.27597320       0.00000000      -0.72394000      -0.28129000
C       10.00000949       5.47108609       8.84536020      -0.00001000       0.69803000       1.36043000
C       10.00000949       7.52415627      19.32409801       0.00000000      -1.03356000      -0.39545000
C       10.00000949      15.88498905      13.72790279      -0.00002000      -0.58481000       1.24735000
C       10.00000949      11.12338862      18.60769690       0.00000000      -2.14162000       0.94736000
C       10.00000949      13.55910550      14.10349275      -0.00001000      -2.12511000       0.54484000
C       10.00000949      12.43159894      20.87020091      -0.00001000       2.14428000       1.28009000
C       10.00000949      10.30870807       6.36932067       0.00000000       0.13009000      -0.89217000
C       10.00000949       8.31059118       5.28377795       0.00001000       1.00601000       0.34125000
C       10.00000949       4.87407034       0.42015757      -0.00003000       0.02533000      -0.67635000
C       10.00000949      10.85050201      16.33720117      -0.00001000       0.34538000      -0.20376000
C       10.00000949      10.43309144       4.02749139       0.00001000      -0.63399000       1.61230000
C       10.00000949      13.07839246       8.66738574       0.00001000       0.13017000       0.70593000
C       10.00000949       6.09227055      15.47940149       0.00002000       0.87101000      -3.72962000
C       10.00000949       9.22111650      14.25470127       0.00001000      -1.00107000       0.51643000
C       10.00000949      11.98750515       1.83665920       0.00000000       2.08221000       0.10089000
C       10.00000949       3.05585158      10.87919092      -0.00001000       0.42397000      -1.15906000
C       10.00000949      22.80739347       9.75318216       0.00001000       0.09777000      -0.91100000
C       10.00000949       7.76769866      17.12079197      -0.00001000       0.24888000      -1.23393000
C       10.00000949       5.96110042       2.62090541      -0.00002000       0.00406000       0.00519000
C       10.00000949      22.63940879       5.57152236       0.00000000      -0.34100000      -1.05067000
C       10.00000949       5.99073759      14.14300739       0.00002000       1.76026000      -1.37499000
C       10.00000949       6.82243388       7.00411315      -0.00001000       2.21418000      -0.62367000
C       10.00000949      22.77560797      13.38719735       0.00001000      -0.97872000       1.03850000
C       10.00000949       7.12424970      13.41309646       0.00000000      -1.59519000       1.71279000
C       10.00000949      14.12399397       6.76818811      -0.00001000       0.29108000      -0.38603000
C       10.00000949      11.85259985      12.16089032       0.00002000      -2.27446000       2.38485000
C       10.00000949       5.57681806      10.20790712       0.00001000      -1.31152000      -2.05630000
C       10.00000949      17.57818970       0.52506482      -0.00002000       0.14441000       0.90076000
C       10.00000949      13.12118815      12.76969913       0.00001000       0.83256000      -0.51083000
C       10.00000949       8.88392649      19.13959064      -0.00001000       0.49364000      -0.78220000
C       10.00000949       4.47352903      19.13259259       0.00000000       1.24810000      -1.88009000
C       10.00000949       0.07226198      20.08669468       0.00000000       0.16639000       1.12579000
C       10.00000949       3.62960191       2.17108543       0.00001000      -0.29905000       0.23146000
C       10.00000949      11.80719199       4.14990433       0.00000000       0.48152000      -1.32865000
C       10.00000949       1.77779111      11.94479660       0.00001000      -1.86188000      -0.40597000
C       10.00000949       5.42789980      18.05850891      -0.00001000      -2.12334000       0.01036000
C       10.00000949       9.39124951       8.60334623      -0.00001000       0.21122000      -1.24801000
C       10.00000949      15.29620042      10.11919473       0.00000000      -0.14539000       1.06143000
C       10.00000949      11.60080593       6.78237448      -0.00001000       0.54370000       0.79039000
C       10.00000949       6.83542151       8.38602626       0.00000000      -2.02393000      -0.96742000
C       10.00000949       2.40329664      15.92230799      -0.00001000      -1.23421000      -1.77130000
C       10.00000949      10.93189438      13.08480145       0.00002000      -0.08795000       2.42790000
C       10.00000949       4.67293303       3.11548328      -0.00001000       0.71109000       1.00645000
C       10.00000949      20.11849114       8.75918487       0.00001000       0.89789000       0.43492000
C       10.00000949       2.65660416      14.51479176       0.00000000       1.00838000       0.79341000
C       10.00000949       6.85050864      10.88709807       0.00001000       0.09242000       1.85348000
C       10.00000949      16.23890185       0.79443671       0.00000000       1.76315000       0.56613000
C       10.00000949       0.70553079       9.74187112      -0.00001000       0.36040000       1.74755000
C       10.00000949       0.49460394      11.14139563      -0.00002000       0.91940000      -0.95446000
C       10.00000949      10.91160732      20.79810624       0.00001000      -2.40958000       0.26562000
C       10.00000949       5.29331186      20.26720619      -0.00002000      -0.72266000      -0.01323000
C       10.00000949      16.86660453       3.22946051       0.00002000       0.06787000      -0.66064000
C       10.00000949      11.34930495      14.32880444       0.00000000      -1.21803000       1.70462000
C       10.00000949       9.75639221       2.85771842       0.00001000       1.33610000       0.58653000
C       10.00000949       3.55130997       0.76130700       0.00000000      -0.06487000      -0.33728000
C       10.00000949       6.52130163      12.17600695      -0.00002000       0.13918000      -0.44031000
C       10.00000949       2.51740220       2.91571129       0.00002000      -0.05269000      -1.54299000
C       10.00000949      23.51150832       2.30895327       0.00001000      -0.79992000       0.24374000
C       10.00000949       9.35389788      11.50019873      -0.00001000      -0.32335000       0.47044000
C       10.00000949      10.20700422      19.64370361      -0.00002000       2.24064000      -1.15343000
C       10.00000949       8.39689053       2.49164242       0.00001000       0.58271000       0.16806000
C       10.00000949       2.21153386       6.50167041       0.00000000      -0.52823000      -0.19790000
C       10.00000949       3.68042943       6.87030461      -0.00001000      -0.09190000      -0.30044000
C       10.00000949       1.62923904      13.51079425       0.00001000       1.73203000       1.21486000
C       10.00000949       4.66365615       5.74266791      -0.00001000      -0.68532000      -0.87658000
C       10.00000949      21.30029183      20.27629731      -0.00001000      -0.93421000      -0.05388000
C       10.00000949      21.58899795      14.07799534       0.00002000       1.14893000      -0.74644000
C       10.00000949      23.36620315       4.48616992       0.00001000      -0.45674000       0.81778000
C       10.00000949      23.70319786      14.44899745       0.00001000      -0.91013000       0.13787000
C       10.00000949       3.96405768      14.53910521       0.00000000       0.17481000      -0.97641000
C       10.00000949      23.20979015       0.96507485      -0.00001000       1.19409000      -0.26972000
C       10.00000949      20.95870751       1.47730640       0.00001000       0.98083000      -0.52766000
C       10.00000949       7.42640730      15.80759079      -0.00001000      -2.22517000       0.63073000
C       10.00000949      12.52610101       3.03472034       0.00002000      -0.42293000       0.76880000
C       10.00000949       2.69478583       4.26741229      -0.00001000      -0.07285000       0.03547000
C       10.00000949       9.29379349       7.26908748       0.00000000       0.41615000       0.53958000
C       10.00000949       4.59515375      16.96469962       0.00000000      -0.56356000      -3.49055000
C       10.00000949      21.92670063       0.45343528      -0.00001000      -0.42125000       0.97385000
C       10.00000949       1.78574969       8.87409236       0.00000000      -0.76834000      -0.67932000
C       10.00000949       4.09434896       4.44995345      -0.00001000       0.00608000       0.47527000
C       10.00000949       0.31939305       2.94048986      -0.00001000       0.83918000       0.43648000
C       10.00000949       3.26043110      17.00159264       0.00000000       0.98125000       4.19700000
C       10.00000949      21.68120521      15.39090053       0.00000000       0.42610000       1.05882000
C       10.00000949       7.96705383      14.54060631       0.00003000       0.66881000      -1.23190000
C       10.00000949      15.03959716      16.00539657      -0.00003000       0.83057000       0.09742000
C       10.00000949      23.96190062      17.87089364       0.00001000      -0.62873000       1.59491000
C       10.00000949      18.58661047       1.44607948       0.00000000      -0.78575000      -0.60896000
C       10.00000949       0.60590203      14.57570224       0.00004000       0.62691000      -0.66375000
C       10.00000949       1.46550218      19.83489190       0.00000000      -1.07354000       0.18203000
C       10.00000949      20.83381147       6.68213964      -0.00004000      -1.12111000      -0.81642000
200
Lattice="0.0 24.41283 0.0 19.851766 0.0 0.0 0.0 0.0 21.142131" Properties=species:S:1:pos:R:3:forces:R:3 energy=-31565.7914532 pbc="T T T"
C       10.00000949       3.57008343       1.61735188       0.00000000      -0.46241000      -0.46222000
C       10.00000949      18.85769053      12.35939379       0.00000000      -0.01391000      -0.30465000
C       10.00000949       1.94440867       5.38752239       0.00000000       0.44972000      -0.14829000
C       10.00000949       4.04220315       0.31106417       0.00001000       1.06657000       0.11499000
C       10.00000949      24.34689095      15.89051023      -0.00003000       0.49447000      -1.06904000
C       10.00000949      23.30690439       3.76962082       0.00001000       0.94677000       0.41438000
C       10.00000949       3.02223512       6.20367207       0.00001000      -0.34246000      -1.34696000
C       10.00000949      17.52379792      14.17960442       0.00001000      -1.71469000      -0.01344000
C       10.00000949      22.61428799      10.70079362      -0.00001000       0.53585000       2.20535000
C       10.00000949      14.32168907      13.84519933       0.00000000      -0.11942000       0.87575000
C       10.00000949      16.69591002       4.88761670       0.00002000       0.29587000       0.60913000
C       10.00000949      23.25519801       8.40877519      -0.00001000       1.20076000      -0.72258000
C       10.00000949      20.19629483      13.04680904      -0.00001000       0.86121000      -0.65236000
C       10.00000949       3.73809253       8.58431831       0.00000000      -0.54873000       0.21895000
C       10.00000949       5.63777690      15.29470383       0.00000000       0.24387000      -0.69279000
C       10.00000949       3.93932749      13.48079356      -0.00002000       0.03004000       0.96832000
C       10.00000949      17.05739080      19.03400683      -0.00001000      -0.21365000       0.48199000
C       10.00000949      16.99360007       3.57633945       0.00000000       0.43716000      -1.41301000
C       10.00000949       5.35864060      18.79000550       0.00001000      -0.33446000       1.20600000
C       10.00000949       8.41354008       3.82678914       0.00002000       1.65071000       0.35333000
C       10.00000949      17.98839848      16.36580648       0.00001000      -0.22542000       0.31642000
C       10.00000949      22.66828917      20.69000653      -0.00001000       0.39096000       1.08446000
C       10.00000949      19.89111004       1.85422832      -0.00002000       0.72271000      -0.60905000
C       10.00000949      23.22780682       2.38521294       0.00001000      -1.81148000      -0.44952000
C       10.00000949      23.99019509       0.05490611       0.00002000      -0.19264000      -0.71823000
C       10.00000949      10.91849174       0.67788015      -0.00001000       1.01382000      -0.19847000
C       10.00000949      20.92999802       2.78847794       0.00002000       0.05657000       0.11456000
C       10.00000949      21.10889524       4.22576229      -0.00003000       0.01730000       0.07454000
C       10.00000949       3.07020633      20.47649215       0.00000000      -0.54521000      -0.61645000
C       10.00000949      16.39380125      14.99579639       0.00000000       0.20212000      -0.47404000
C       10.00000949      21.24099306      10.73419818       0.00000000      -1.39644000       1.26434000
C       10.00000949      22.70429809       6.15345951       0.00000000       0.14290000       0.58619000
C       10.00000949      13.46399311      10.29490698       0.00000000      -0.35890000      -0.19858000
C       10.00000949      16.13858953       7.87962994       0.00001000       1.48757000      -0.10410000
C       10.00000949      15.74048951      18.42629742       0.00000000      -0.04023000      -0.56628000
C       10.00000949      19.86708782       6.59194731       0.00002000       1.05452000       0.19912000
C       10.00000949      13.12619278      20.93089997       0.00000000       0.76452000       0.02780000
C       10.00000949      18.91488979      10.98900315      -0.00003000       0.61219000       0.10102000
C       10.00000949       4.09915829      17.00180406      -0.00001000       0.70426000       1.17712000
C       10.00000949      15.50290385      17.10009383      -0.00001000       0.66542000      -0.03586000
C       10.00000949      16.43889175      10.47260660       0.00001000       1.02862000      -0.44169000
C       10.00000949      18.85729993      17.37430727      -0.00001000      -0.25956000      -1.40437000
C       10.00000949      19.63980437      19.45388956      -0.00002000      -2.05176000       0.21319000
C       10.00000949      12.06340464      16.95529137       0.00001000      -1.66060000       0.21122000
C       10.00000949       0.14403570       4.16430212       0.00001000       2.03234000       0.02583000
C       10.00000949       5.34592151       0.16336525      -0.00001000      -1.27485000      -0.56217000
C       10.00000949      22.35480402      14.47950555       0.00002000       0.66787000      -0.21202000
C       10.00000949       0.76949240      20.45890189       0.00001000       0.48112000       0.69049000
C       10.00000949      22.13140221       7.48465265       0.00001000      -0.41726000       0.78348000
C       10.00000949      24.21139974       1.44089965      -0.00001000       0.35880000       0.01482000
C       10.00000949      21.99459271       1.88367930       0.00002000      -0.64399000       0.41317000
C       10.00000949       1.99052451      16.08550410      -0.00001000      -0.70689000      -1.54226000
C       10.00000949      10.71579201      13.53180953      -0.00002000       0.67626000      -1.33318000
C       10.00000949      18.57589324      15.09440329       0.00000000      -0.06099000      -0.02215000
C       10.00000949      17.80320275      10.15429067       0.00000000       0.38067000       0.66855000
C       10.00000949      13.05148952      16.00569256      -0.00001000       1.22551000      -0.11256000
C       10.00000949      16.65540914      16.33589036       0.00000000       0.08986000      -0.78253000
C       10.00000949       9.20239186      11.76889407       0.00000000       0.25110000       0.36685000
C       10.00000949      14.37149124       0.44654295      -0.00001000      -0.48452000       0.40650000
C       10.00000949      19.79560705       8.81683946       0.00000000      -0.42733000       0.12833000
C       10.00000949      20.96891207      18.89561044      -0.00001000       0.82732000      -0.38566000
C       10.00000949      15.06488885      14.92809928       0.00000000       0.93219000       0.87738000
C       10.00000949      18.60450507       2.13480554      -0.00002000      -1.36157000       0.37710000
C       10.00000949       9.85492239       1.67583101       0.00001000      -0.83459000      -0.54721000
C       10.00000949      22.33271041      19.35029311      -0.00001000      -0.10080000       0.43947000
C       10.00000949      21.67410108       0.51660797      -0.00001000      -0.03345000       0.21287000
C       10.00000949      20.27570976       0.51180871       0.00000000      -0.48298000       1.66821000
C       10.00000949      14.23329021       9.18278861      -0.00001000      -0.84917000       1.03744000
C       10.00000949       1.91482032       0.03281259       0.00002000       0.82114000       1.07526000
C       10.00000949      14.56979666       4.20834118       0.00000000       0.30789000       0.21762000
C       10.00000949      15.26749093       6.71949779       0.00000000      -0.68063000      -0.64363000
C       10.00000949      19.22449330      20.77550531      -0.00001000       1.00111000       0.44943000
C       10.00000949      15.45029420       5.32726732      -0.00001000       0.94981000      -0.33744000
C       10.00000949       6.65947824      10.86020528      -0.00001000      -0.75134000       0.75721000
C       10.00000949      12.62770721      12.34190925       0.00000000      -0.33191000      -1.05977000
C       10.00000949      10.60500659      20.40739966      -0.00002000      -1.25059000       0.03665000
C       10.00000949      17.55619374       7.80309543       0.00000000       0.57966000      -0.06345000
C       10.00000949      18.44360011       6.75298692       0.00000000      -1.28365000      -1.27416000
C       10.00000949      17.41860303       1.40013763       0.00001000       2.29602000      -0.00808000
C       10.00000949      13.40000708       8.07136793      -0.00002000      -0.78813000      -0.42448000
C       10.00000949       8.58677352      13.11890371       0.00002000      -1.26237000      -0.00524000
C       10.00000949      15.00859287       2.85731672       0.00000000       0.88058000      -1.83230000