2
Lattice="20.0 0.0 0.0 0.0 15.0 0.0 0.0 0.0 15.0" Properties=species:S:1:pos:R:3:force:R:3 energy=-284.687571 config_type=cluster detailed_ct=dimer pbc="T T T"
C        0.00000000       0.00000000       0.00000000    -146.93508562       0.00000000      -0.00000000
C        0.80000000       0.00000000       0.00000000     146.93508562      -0.00000000       0.00000000
2
Lattice="20.0 0.0 0.0 0.0 15.0 0.0 0.0 0.0 15.0" Properties=species:S:1:pos:R:3:force:R:3 energy=-295.888512 config_type=cluster detailed_ct=dimer pbc="T T T"
C        0.00000000       0.00000000       0.00000000     -82.08344243      -0.00000000       0.00000000
C        0.90000000       0.00000000       0.00000000      82.08344243       0.00000000       0.00000000
2
Lattice="20.0 0.0 0.0 0.0 15.0 0.0 0.0 0.0 15.0" Properties=species:S:1:pos:R:3:force:R:3 energy=-301.930994 config_type=cluster detailed_ct=dimer pbc="T T T"
C        0.00000000       0.00000000       0.00000000     -42.09340866       0.00000000       0.00000000
C        1.00000000       0.00000000       0.00000000      42.09340866      -0.00000000      -0.00000000
2
Lattice="20.0 0.0 0.0 0.0 15.0 0.0 0.0 0.0 15.0" Properties=species:S:1:pos:R:3:force:R:3 energy=-304.838883 config_type=cluster detailed_ct=dimer pbc="T T T"
C        0.00000000       0.00000000       0.00000000     -18.14589606       0.00000000      -0.00000000
C        1.10000000       0.00000000       0.00000000      18.14589606       0.00000000      -0.00000000
2
Lattice="20.0 0.0 0.0 0.0 15.0 0.0 0.0 0.0 15.0" Properties=species:S:1:pos:R:3:force:R:3 energy=-305.901694 config_type=cluster detailed_ct=dimer pbc="T T T"
C        0.00000000       0.00000000       0.00000000      -4.64161562       0.00000000       0.00000000
C        1.20000000       0.00000000       0.00000000       4.64161562      -0.00000000      -0.00000000
2
Lattice="20.0 0.0 0.0 0.0 15.0 0.0 0.0 0.0 15.0" Properties=species:S:1:pos:R:3:force:R:3 energy=-305.99288 config_type=cluster detailed_ct=dimer pbc="T T T"
C        0.00000000       0.00000000       0.00000000       2.07330859      -0.00000000       0.00000000
C        1.30000000       0.00000000       0.00000000      -2.07330859       0.00000000      -0.00000000
2
Lattice="20.0 0.0 0.0 0.0 15.0 0.0 0.0 0.0 15.0" Properties=species:S:1:pos:R:3:force:R:3 energy=-305.600275 config_type=cluster detailed_ct=dimer pbc="T T T"
C        0.00000000       0.00000000       0.00000000       5.35636559      -0.00000000       0.00000000
C        1.40000000       0.00000000       0.00000000      -5.35636559       0.00000000       0.00000000
2
Lattice="20.0 0.0 0.0 0.0 15.0 0.0 0.0 0.0 15.0" Properties=species:S:1:pos:R:3:force:R:3 energy=-304.987197 config_type=cluster detailed_ct=dimer pbc="T T T"
C        0.00000000       0.00000000       0.00000000       6.66577639       0.00000000       0.00000000
C        1.50000000       0.00000000       0.00000000      -6.66577639       0.00000000      -0.00000000
2
Lattice="20.0 0.0 0.0 0.0 15.0 0.0 0.0 0.0 15.0" Properties=species:S:1:pos:R:3:force:R:3 energy=-304.30315 config_type=cluster detailed_ct=dimer pbc="T T T"
C        0.00000000       0.00000000       0.00000000       6.89138503      -0.00000000       0.00000000
C        1.60000000       0.00000000       0.00000000      -6.89138503       0.00000000      -0.00000000
2
Lattice="20.0 0.0 0.0 0.0 15.0 0.0 0.0 0.0 15.0" Properties=species:S:1:pos:R:3:force:R:3 energy=-303.625901 config_type=cluster detailed_ct=dimer pbc="T T T"
C        0.00000000       0.00000000       0.00000000       6.60202427       0.00000000       0.00000000
C        1.70000000       0.00000000       0.00000000      -6.60202427      -0.00000000       0.00000000
2
Lattice="20.0 0.0 0.0 0.0 15.0 0.0 0.0 0.0 15.0" Properties=species:S:1:pos:R:3:force:R:3 energy=-302.988171 config_type=cluster detailed_ct=dimer pbc="T T T"
C        0.00000000       0.00000000       0.00000000       6.14501516      -0.00000000      -0.00000000
C        1.80000000       0.00000000       0.00000000      -6.14501516       0.00000000      -0.00000000
2
Lattice="20.0 0.0 0.0 0.0 15.0 0.0 0.0 0.0 15.0" Properties=species:S:1:pos:R:3:force:R:3 energy=-302.395652 config_type=cluster detailed_ct=dimer pbc="T T T"
C        0.00000000       0.00000000       0.00000000       5.72214354       0.00000000       0.00000000
C        1.90000000       0.00000000       0.00000000      -5.72214354      -0.00000000      -0.00000000
2
Lattice="20.0 0.0 0.0 0.0 15.0 0.0 0.0 0.0 15.0" Properties=species:S:1:pos:R:3:force:R:3 energy=-301.839851 config_type=cluster detailed_ct=dimer pbc="T T T"
C        0.00000000       0.00000000       0.00000000       5.40346064      -0.00000000      -0.00000000
C        2.00000000       0.00000000       0.00000000      -5.40346064       0.00000000       0.00000000
2
Lattice="20.0 0.0 0.0 0.0 15.0 0.0 0.0 0.0 15.0" Properties=species:S:1:pos:R:3:force:R:3 energy=-301.315783 config_type=cluster detailed_ct=dimer pbc="T T T"
C        0.00000000       0.00000000       0.00000000       5.07059403       0.00000000       0.00000000
C        2.10000000       0.00000000       0.00000000      -5.07059403       0.00000000      -0.00000000
2
Lattice="20.0 0.0 0.0 0.0 15.0 0.0 0.0 0.0 15.0" Properties=species:S:1:pos:R:3:force:R:3 energy=-300.826626 config_type=cluster detailed_ct=dimer pbc="T T T"
C        0.00000000       0.00000000       0.00000000       4.70936269      -0.00000000       0.00000000
C        2.20000000       0.00000000       0.00000000      -4.70936269       0.00000000      -0.00000000
2
Lattice="20.0 0.0 0.0 0.0 15.0 0.0 0.0 0.0 15.0" Properties=species:S:1:pos:R:3:force:R:3 energy=-300.37425 config_type=cluster detailed_ct=dimer pbc="T T T"
C        0.00000000       0.00000000       0.00000000       4.33723615      -0.00000000      -0.00000000
C        2.30000000       0.00000000       0.00000000      -4.33723615       0.00000000       0.00000000
2
Lattice="20.0 0.0 0.0 0.0 15.0 0.0 0.0 0.0 15.0" Properties=species:S:1:pos:R:3:force:R:3 energy=-299.959034 config_type=cluster detailed_ct=dimer pbc="T T T"
C        0.00000000       0.00000000       0.00000000       3.96998579       0.00000000       0.00000000
C        2.40000000       0.00000000       0.00000000      -3.96998579      -0.00000000       0.00000000
2
Lattice="20.0 0.0 0.0 0.0 15.0 0.0 0.0 0.0 15.0" Properties=species:S:1:pos:R:3:force:R:3 energy=-299.57976 config_type=cluster detailed_ct=dimer pbc="T T T"
C        0.00000000       0.00000000       0.00000000       3.61610537      -0.00000000      -0.00000000
C        2.50000000       0.00000000       0.00000000      -3.61610537       0.00000000       0.00000000
2
Lattice="20.0 0.0 0.0 0.0 15.0 0.0 0.0 0.0 15.0" Properties=species:S:1:pos:R:3:force:R:3 energy=-299.235216 config_type=cluster detailed_ct=dimer pbc="T T T"
C        0.00000000       0.00000000       0.00000000       3.27816525      -0.00000000       0.00000000
C        2.60000000       0.00000000       0.00000000      -3.27816525       0.00000000       0.00000000
2
Lattice="20.0 0.0 0.0 0.0 15.0 0.0 0.0 0.0 15.0" Properties=species:S:1:pos:R:3:force:R:3 energy=-298.923429 config_type=cluster detailed_ct=dimer pbc="T T T"
C        0.00000000       0.00000000       0.00000000       2.96210319      -0.00000000       0.00000000
C        2.70000000       0.00000000       0.00000000      -2.96210319       0.00000000      -0.00000000
2
Lattice="20.0 0.0 0.0 0.0 15.0 0.0 0.0 0.0 15.0" Properties=species:S:1:pos:R:3:force:R:3 energy=-298.642075 config_type=cluster detailed_ct=dimer pbc="T T T"
C        0.00000000       0.00000000       0.00000000       2.66752389       0.00000000       0.00000000
C        2.80000000       0.00000000       0.00000000      -2.66752389      -0.00000000      -0.00000000
2
Lattice="20.0 0.0 0.0 0.0 15.0 0.0 0.0 0.0 15.0" Properties=species:S:1:pos:R:3:force:R:3 energy=-298.38909 config_type=cluster detailed_ct=dimer pbc="T T T"
C        0.00000000       0.00000000       0.00000000       2.39505254      -0.00000000       0.00000000
C        2.90000000       0.00000000       0.00000000      -2.39505254       0.00000000      -0.00000000
2
Lattice="20.0 0.0 0.0 0.0 15.0 0.0 0.0 0.0 15.0" Properties=species:S:1:pos:R:3:force:R:3 energy=-298.162211 config_type=cluster detailed_ct=dimer pbc="T T T"
C        0.00000000       0.00000000       0.00000000       2.14618159      -0.00000000       0.00000000
C        3.00000000       0.00000000       0.00000000      -2.14618159       0.00000000      -0.00000000
2
Lattice="20.0 0.0 0.0 0.0 15.0 0.0 0.0 0.0 15.0" Properties=species:S:1:pos:R:3:force:R:3 energy=-297.959259 config_type=cluster detailed_ct=dimer pbc="T T T"
C        0.00000000       0.00000000       0.00000000       1.91559853       0.00000000       0.00000000
C        3.10000000       0.00000000       0.00000000      -1.91559853      -0.00000000       0.00000000
2
Lattice="20.0 0.0 0.0 0.0 15.0 0.0 0.0 0.0 15.0" Properties=species:S:1:pos:R:3:force:R:3 energy=-297.778456 config_type=cluster detailed_ct=dimer pbc="T T T"
C        0.00000000       0.00000000       0.00000000       1.70331658      -0.00000000      -0.00000000
C        3.20000000       0.00000000       0.00000000      -1.70331658       0.00000000       0.00000000
2
Lattice="20.0 0.0 0.0 0.0 15.0 0.0 0.0 0.0 15.0" Properties=species:S:1:pos:R:3:force:R:3 energy=-297.617941 config_type=cluster detailed_ct=dimer pbc="T T T"
C        0.00000000       0.00000000       0.00000000       1.50864402      -0.00000000      -0.00000000
C        3.30000000       0.00000000       0.00000000      -1.50864402       0.00000000       0.00000000
2
Lattice="20.0 0.0 0.0 0.0 15.0 0.0 0.0 0.0 15.0" Properties=species:S:1:pos:R:3:force:R:3 energy=-297.476232 config_type=cluster detailed_ct=dimer pbc="T T T"
C        0.00000000       0.00000000       0.00000000       1.32881481       0.00000000       0.00000000
C        3.40000000       0.00000000       0.00000000      -1.32881481      -0.00000000      -0.00000000
2
Lattice="20.0 0.0 0.0 0.0 15.0 0.0 0.0 0.0 15.0" Properties=species:S:1:pos:R:3:force:R:3 energy=-297.351727 config_type=cluster detailed_ct=dimer pbc="T T T"
C        0.00000000       0.00000000       0.00000000       1.16395938       0.00000000      -0.00000000
C        3.50000000       0.00000000       0.00000000      -1.16395938      -0.00000000       0.00000000
2
Lattice="20.0 0.0 0.0 0.0 15.0 0.0 0.0 0.0 15.0" Properties=species:S:1:pos:R:3:force:R:3 energy=-297.242953 config_type=cluster detailed_ct=dimer pbc="T T T"
C        0.00000000       0.00000000       0.00000000       1.01134022      -0.00000000      -0.00000000
C        3.60000000       0.00000000       0.00000000      -1.01134022       0.00000000       0.00000000
2
Lattice="20.0 0.0 0.0 0.0 15.0 0.0 0.0 0.0 15.0" Properties=species:S:1:pos:R:3:force:R:3 energy=-297.148931 config_type=cluster detailed_ct=dimer pbc="T T T"
C        0.00000000       0.00000000       0.00000000       0.87185922      -0.00000000       0.00000000
C        3.70000000       0.00000000       0.00000000      -0.87185922       0.00000000      -0.00000000
