200
Lattice="24.41283 0.0 0.0 0.0 19.851766 0.0 0.0 0.0 21.142131" Properties=species:S:1:pos:R:3:forces:R:3 energy=-31544.01120658 pbc="T T T"
C       14.36538803      10.00000949       1.86797070       0.25332000       0.00002000       2.48554000
C        0.35667145      10.00000949       4.34832322       0.07994000       0.00001000       0.45315000
C       21.89979769      10.00000949       7.57163138       1.14000000      -0.00002000       0.48037000
C       22.02479138      10.00000949      19.09730637      -1.34260000       0.00002000      -0.75269000
C       14.23490146      10.00000949       4.49027149      -1.20395000       0.00000000       0.84120000
C       18.48170854      10.00000949      16.52130685      -0.64912000       0.00000000      -1.12542000
C        1.40420157      10.00000949       2.18911967      -0.37804000       0.00002000       1.84348000
C       22.91930189      10.00000949      17.04569512      -0.67929000       0.00002000      -1.05720000
C        4.10274697      10.00000949       8.27756713       0.13212000       0.00001000       0.88539000
C       20.76840950      10.00000949      16.41250944       1.35683000      -0.00002000      -0.39377000
C        7.09383132      10.00000949       4.66456722      -0.15105000       0.00001000       0.44406000
C        1.06867163      10.00000949      16.00770106       0.62043000      -0.00001000       1.18665000
C        1.61676408      10.00000949       5.14041316       1.13185000      -0.00001000      -0.93167000
C        5.09993784      10.00000949      12.23759398      -0.01406000       0.00002000       0.75267000
C        1.22986955      10.00000949       0.87078095       0.53572000      -0.00001000      -1.85065000
C       21.58628813      10.00000949      17.65359482       2.04378000       0.00003000      -0.35909000
C       17.46369353      10.00000949      20.28329535       0.91127000      -0.00002000      -0.53445000
C        3.13795193      10.00000949      18.38720562      -0.68202000      -0.00003000      -0.81679000
C       23.97210518      10.00000949       9.00098743      -0.64909000       0.00000000      -1.40668000
C        1.30476811      10.00000949       7.52399815       0.42223000      -0.00000000       1.64834000
C       14.34090197      10.00000949       8.09644249       0.56170000       0.00001000      -0.88931000
C       20.52520889      10.00000949       4.08886699      -0.54275000      -0.00000000      -0.76457000
C       24.38060506      10.00000949       0.29643382      -0.25331000       0.00000000      -0.45751000
C       15.78470114      10.00000949       2.09349381       0.90843000       0.00002000      -2.91414000
C       20.86410779      10.00000949      11.98090736      -0.65450000       0.00001000       0.78535000
C       19.76679991      10.00000949       0.76479545      -0.93079000      -0.00003000      -0.55073000
C       23.35118926      10.00000949      11.12699783      -0.32925000       0.00001000      -2.40754000
C       24.27699701      10.00000949       7.62030056      -0.98159000       0.00001000       0.06722000
C       17.48730073      10.00000949      10.96910840      -1.26298000      -0.00000000      -1.05873000
C       18.45839429      10.00000949      11.96149889       1.17602000       0.00001000       0.56366000
C       22.99649525      10.00000949      15.68849717      -0.43529000       0.00001000      -0.30361000
C       14.81260667      10.00000949      14.63500592       0.98497000      -0.00001000      -0.26573000
C       21.22309846      10.00000949       5.35796569       0.03521000       0.00001000       0.10916000
C        0.81331343      10.00000949      17.43390693      -0.28765000      -0.00001000      -0.38785000
C       23.46229205      10.00000949      19.16350239       0.96311000      -0.00000000      -0.56356000
C       21.28020007      10.00000949       2.88330040       0.04253000      -0.00001000       1.30776000
C       16.33699260      10.00000949      16.40809074      -1.51320000      -0.00002000       0.79024000
C       18.60609191      10.00000949      19.43359311      -0.97838000       0.00001000       0.76943000
C       13.92690919      10.00000949       3.15009295      -1.99444000      -0.00000000      -1.23801000
C       14.99680147      10.00000949       5.69080626      -0.82300000      -0.00001000      -0.33445000
C       15.50820143      10.00000949      12.41389821      -0.21699000       0.00000000      -0.95394000
C       19.65100986      10.00000949       7.35885697       0.51453000      -0.00001000      -0.02115000
C       19.14200235      10.00000949       3.96660205       0.49793000      -0.00001000       0.72127000
C       18.26680240      10.00000949       2.80668132      -0.86796000       0.00001000       0.44270000
C       11.81749421      10.00000949       8.09086097      -1.72193000      -0.00001000      -0.53362000
C       12.84490816      10.00000949       6.28132712      -0.46761000       0.00001000      -1.79603000
C       17.19358998      10.00000949       7.08654632       0.09442000       0.00001000      -1.35731000
C        3.05914731      10.00000949       9.35427243      -0.92182000      -0.00001000      -0.04354000
C       17.03180615      10.00000949       4.68945151       0.63616000       0.00001000       0.32143000
C       21.57889104      10.00000949       8.90901916       0.42895000      -0.00000000       0.00822000
C       14.80809029      10.00000949      19.69480414       0.25076000      -0.00000000      -0.63529000
C       19.42660712      10.00000949      14.22169840      -0.54315000      -0.00001000      -1.96064000
C       22.37870418      10.00000949      12.03579234       0.25288000       0.00002000       1.85126000
C       15.28250482      10.00000949      18.35959400      -0.76457000       0.00001000      -1.37768000
C       13.29859619      10.00000949      19.77410827      -0.28148000      -0.00001000      -0.58595000
C       17.38908792      10.00000949      15.61699448      -0.08563000       0.00000000      -0.30388000
C       18.36970247      10.00000949       5.12072984      -0.05037000      -0.00001000      -0.60528000
C        2.27058849      10.00000949      21.09870506       0.15086000       0.00001000       0.85459000
C       12.48489215      10.00000949      18.64029807       1.22041000      -0.00002000      -0.02664000
C       14.37569025      10.00000949      17.24170382       0.37596000       0.00000000       1.20209000
C        6.72524641      10.00000949      20.36230350      -1.25474000       0.00002000      -0.04205000
C       15.96479459      10.00000949      20.51239149      -2.22231000      -0.00001000       0.34417000
C        9.69274796      10.00000949       5.13690357      -0.21112000       0.00001000      -0.15646000
C       11.43789911      10.00000949      10.11310580      -1.18576000      -0.00001000      -0.48939000
C        8.12158705      10.00000949       6.61600705      -0.49515000       0.00002000      -0.65910000
C       10.74550243      10.00000949       8.94345969       0.85056000      -0.00002000       1.03635000
C       20.48409768      10.00000949      13.36110796       0.91370000       0.00001000      -0.43753000
C       16.95471043      10.00000949       8.46399844      -0.43721000      -0.00000000       0.29366000
C       14.03859789      10.00000949      10.66320291      -1.02306000      -0.00000000       0.45650000
C       18.28870070      10.00000949      13.39408968       0.10312000       0.00001000       0.39206000
C       12.24379104      10.00000949      16.29350039      -0.52942000      -0.00000000      -0.54871000
C       23.09370714      10.00000949       6.89408950       0.60692000      -0.00000000       0.16938000
C       19.56920246      10.00000949      15.68390932      -0.30423000       0.00000000       3.14616000
C       17.16639408      10.00000949      14.22649767       0.97024000      -0.00001000      -0.28727000
C        6.78657144      10.00000949      18.12149132       1.21331000      -0.00000000      -0.30989000
C       19.85729827      10.00000949      20.43080400       0.07039000      -0.00000000      -0.41418000
C       16.17821155      10.00000949      11.19680915       0.26373000      -0.00002000       0.36597000
C        9.89039423      10.00000949       0.63904205       1.71876000      -0.00001000       1.51037000
C       22.60239894      10.00000949       3.27605777       0.35349000       0.00001000      -0.92209000
C       18.50328948      10.00000949       6.56148150      -0.39008000       0.00002000       0.15663000
C       12.86080091      10.00000949       9.99919200      -0.19156000      -0.00001000      -0.78261000
C        8.20341885      10.00000949      10.56370804      -1.27539000      -0.00001000      -0.58741000
C       12.89290378      10.00000949       4.97112812       0.88927000       0.00002000       1.48674000
C       10.63049359      10.00000949       1.79217616      -2.29679000      -0.00002000      -0.73833000
C       19.69009480      10.00000949      11.21139722      -0.09574000      -0.00000000       0.12697000
C       16.32390732      10.00000949       5.88618069       0.30892000       0.00002000       0.45858000
C        8.45792260      10.00000949       1.04845942      -0.41411000      -0.00000000       0.07184000
C        7.17483309      10.00000949       0.52003300       0.52183000      -0.00002000      -0.04177000
C        8.11104070      10.00000949       9.16828511       1.28614000       0.00001000       0.69205000
C       12.53979661      10.00000949      14.96689509      -0.45764000       0.00001000      -0.88206000
C       16.60008967      10.00000949      17.79190664       0.76175000      -0.00000000       0.42125000
C       19.29980688      10.00000949       9.80121708      -0.51414000       0.00001000       0.37367000
C       18.05021177      10.00000949      17.98709079       0.02837000      -0.00001000      -0.53736000
C       13.02719876      10.00000949      17.38050191       1.13998000      -0.00001000       0.00259000
C       13.10649163      10.00000949       0.97334143      -2.12411000       0.00000000      -0.22735000
C        9.53023175      10.00000949      12.90659443       2.78572000       0.00000000      -0.85174000
C        4.78388934      10.00000949      13.50229511       1.23149000       0.00002000       1.18096000
C        4.43434644      10.00000949      11.07500933       0.53270000      -0.00001000       1.00411000
C       10.25849088      10.00000949      15.12379085       1.35083000       0.00001000      -0.03212000
C        4.78447525      10.00000949      15.67420509       1.79109000      -0.00001000       2.60704000
C        1.77996385      10.00000949      18.51879424       0.99747000      -0.00001000       1.59603000
C        8.99246593      10.00000949      17.73499202       0.00565000      -0.00001000       2.63016000
C        6.07010370      10.00000949       5.77406397      -0.25319000       0.00000000       0.48784000
C        6.00265105      10.00000949       1.26709020      -0.67699000      -0.00000000      -0.16546000
C       17.89970667      10.00000949       9.60628664      -0.38593000      -0.00001000       0.46687000
C       15.56190966      10.00000949       8.80705066       0.50924000       0.00001000       0.15892000
C       14.18580726      10.00000949      12.00908982       1.24212000       0.00000000      -0.14161000
C       10.31468922      10.00000949      17.50989175       0.17712000       0.00001000      -0.92613000
C       10.77870388      10.00000949      11.23609123       2.11264000      -0.00000000      -3.64352000
C        7.19438776      10.00000949       3.27597320      -0.72394000      -0.00000000      -0.28129000
C        5.47108609      10.00000949       8.84536020       0.69803000      -0.00001000       1.36043000
C        7.52415627      10.00000949      19.32409801      -1.03356000      -0.00000000      -0.39545000
C       15.88498905      10.00000949      13.72790279      -0.58481000      -0.00002000       1.24735000
C       11.12338862      10.00000949      18.60769690      -2.14162000      -0.00000000       0.94736000
C       13.55910550      10.00000949      14.10349275      -2.12511000      -0.00001000       0.54484000
C       12.43159894      10.00000949      20.87020091       2.14428000      -0.00001000       1.28009000
C       10.30870807      10.00000949       6.36932067       0.13009000      -0.00000000      -0.89217000
C        8.31059118      10.00000949       5.28377795       1.00601000       0.00001000       0.34125000
C        4.87407034      10.00000949       0.42015757       0.02533000      -0.00003000      -0.67635000
C       10.85050201      10.00000949      16.33720117       0.34538000      -0.00001000      -0.20376000
C       10.43309144      10.00000949       4.02749139      -0.63399000       0.00001000       1.61230000
C       13.07839246      10.00000949       8.66738574       0.13017000       0.00001000       0.70593000
C        6.09227055      10.00000949      15.47940149       0.87101000       0.00002000      -3.72962000
C        9.22111650      10.00000949      14.25470127      -1.00107000       0.00001000       0.51643000
C       11.98750515      10.00000949       1.83665920       2.08221000       0.00000000       0.10089000
C        3.05585158      10.00000949      10.87919092       0.42397000      -0.00001000      -1.15906000
C       22.80739347      10.00000949       9.75318216       0.09777000       0.00001000      -0.91100000
C        7.76769866      10.00000949      17.12079197       0.24888000      -0.00001000      -1.23393000
C        5.96110042      10.00000949       2.62090541       0.00406000      -0.00002000       0.00519000
C       22.63940879      10.00000949       5.57152236      -0.34100000      -0.00000000      -1.05067000
C        5.99073759      10.00000949      14.14300739       1.76026000       0.00002000      -1.37499000
C        6.82243388      10.00000949       7.00411315       2.21418000      -0.00001000      -0.62367000
C       22.77560797      10.00000949      13.38719735      -0.97872000       0.00001000       1.03850000
C        7.12424970      10.00000949      13.41309646      -1.59519000      -0.00000000       1.71279000
C       14.12399397      10.00000949       6.76818811       0.29108000      -0.00001000      -0.38603000
C       11.85259985      10.00000949      12.16089032      -2.27446000       0.00002000       2.38485000
C        5.57681806      10.00000949      10.20790712      -1.31152000       0.00001000      -2.05630000
C       17.57818970      10.00000949       0.52506482       0.14441000      -0.00002000       0.90076000
C       13.12118815      10.00000949      12.76969913       0.83256000       0.00001000      -0.51083000
C        8.88392649      10.00000949      19.13959064       0.49364000      -0.00001000      -0.78220000
C        4.47352903      10.00000949      19.13259259       1.24810000       0.00000000      -1.88009000
C        0.07226198      10.00000949      20.08669468       0.16639000       0.00000000       1.12579000
C        3.62960191      10.00000949       2.17108543      -0.29905000       0.00001000       0.23146000
C       11.80719199      10.00000949       4.14990433       0.48152000       0.00000000      -1.32865000
C        1.77779111      10.00000949      11.94479660      -1.86188000       0.00001000      -0.40597000
C        5.42789980      10.00000949      18.05850891      -2.12334000      -0.00001000       0.01036000
C        9.39124951      10.00000949       8.60334623       0.21122000      -0.00001000      -1.24801000
C       15.29620042      10.00000949      10.11919473      -0.14539000      -0.00000000       1.06143000
C       11.60080593      10.00000949       6.78237448       0.54370000      -0.00001000       0.79039000
C        6.83542151      10.00000949       8.38602626      -2.02393000      -0.00000000      -0.96742000
C        2.40329664      10.00000949      15.92230799      -1.23421000      -0.00001000      -1.77130000
C       10.93189438      10.00000949      13.08480145      -0.08795000       0.00002000       2.42790000
C        4.67293303      10.00000949       3.11548328       0.71109000      -0.00001000       1.00645000
C       20.11849114      10.00000949       8.75918487       0.89789000       0.00001000       0.43492000
C        2.65660416      10.00000949      14.51479176       1.00838000       0.00000000       0.79341000
C        6.85050864      10.00000949      10.88709807       0.09242000       0.00001000       1.85348000
C       16.23890185      10.00000949       0.79443671       1.76315000       0.00000000       0.56613000
C        0.70553079      10.00000949       9.74187112       0.36040000      -0.00001000       1.74755000
C        0.49460394      10.00000949      11.14139563       0.91940000      -0.00002000      -0.95446000
C       10.91160732      10.00000949      20.79810624      -2.40958000       0.00001000       0.26562000
C        5.29331186      10.00000949      20.26720619      -0.72266000      -0.00002000      -0.01323000
C       16.86660453      10.00000949       3.22946051       0.06787000       0.00002000      -0.66064000
C       11.34930495      10.00000949      14.32880444      -1.21803000       0.00000000       1.70462000
C        9.75639221      10.00000949       2.85771842       1.33610000       0.00001000       0.58653000
C        3.55130997      10.00000949       0.76130700      -0.06487000      -0.00000000      -0.33728000
C        6.52130163      10.00000949      12.17600695       0.13918000      -0.00002000      -0.44031000
C        2.51740220      10.00000949       2.91571129      -0.05269000       0.00002000      -1.54299000
C       23.51150832      10.00000949       2.30895327      -0.79992000       0.00001000       0.24374000
C        9.35389788      10.00000949      11.50019873      -0.32335000      -0.00001000       0.47044000
C       10.20700422      10.00000949      19.64370361       2.24064000      -0.00002000      -1.15343000
C        8.39689053      10.00000949       2.49164242       0.58271000       0.00001000       0.16806000
C        2.21153386      10.00000949       6.50167041      -0.52823000       0.00000000      -0.19790000
C        3.68042943      10.00000949       6.87030461      -0.09190000      -0.00001000      -0.30044000
C        1.62923904      10.00000949      13.51079425       1.73203000       0.00001000       1.21486000
C        4.66365615      10.00000949       5.74266791      -0.68532000      -0.00001000      -0.87658000
C       21.30029183      10.00000949      20.27629731      -0.93421000      -0.00001000      -0.05388000
C       21.58899795      10.00000949      14.07799534       1.14893000       0.00002000      -0.74644000
C       23.36620315      10.00000949       4.48616992      -0.45674000       0.00001000       0.81778000
C       23.70319786      10.00000949      14.44899745      -0.91013000       0.00001000       0.13787000
C        3.96405768      10.00000949      14.53910521       0.17481000       0.00000000      -0.97641000
C       23.20979015      10.00000949       0.96507485       1.19409000      -0.00001000      -0.26972000
C       20.95870751      10.00000949       1.47730640       0.98083000       0.00001000      -0.52766000
C        7.42640730      10.00000949      15.80759079      -2.22517000      -0.00001000       0.63073000
C       12.52610101      10.00000949       3.03472034      -0.42293000       0.00002000       0.76880000
C        2.69478583      10.00000949       4.26741229      -0.07285000      -0.00001000       0.03547000
C        9.29379349      10.00000949       7.26908748       0.41615000       0.00000000       0.53958000
C        4.59515375      10.00000949      16.96469962      -0.56356000       0.00000000      -3.49055000
C       21.92670063      10.00000949       0.45343528      -0.42125000      -0.00001000       0.97385000
C        1.78574969      10.00000949       8.87409236      -0.76834000       0.00000000      -0.67932000
C        4.09434896      10.00000949       4.44995345       0.00608000      -0.00001000       0.47527000
C        0.31939305      10.00000949       2.94048986       0.83918000      -0.00001000       0.43648000
C        3.26043110      10.00000949      17.00159264       0.98125000      -0.00000000       4.19700000
C       21.68120521      10.00000949      15.39090053       0.42610000      -0.00000000       1.05882000
C        7.96705383      10.00000949      14.54060631       0.66881000       0.00003000      -1.23190000
C       15.03959716      10.00000949      16.00539657       0.83057000      -0.00003000       0.09742000
C       23.96190062      10.00000949      17.87089364      -0.62873000       0.00001000       1.59491000
C       18.58661047      10.00000949       1.44607948      -0.78575000      -0.00000000      -0.60896000
C        0.60590203      10.00000949      14.57570224       0.62691000       0.00004000      -0.66375000
C        1.46550218      10.00000949      19.83489190      -1.07354000      -0.00000000       0.18203000
C       20.83381147      10.00000949       6.68213964      -1.12111000      -0.00004000      -0.81642000
200
Lattice="24.41283 0.0 0.0 0.0 19.851766 0.0 0.0 0.0 21.142131" Properties=species:S:1:pos:R:3:forces:R:3 energy=-31565.7914532 pbc="T T T"
C        3.57008343      10.00000949       1.61735188      -0.46241000       0.00000000      -0.46222000
C       18.85769053      10.00000949      12.35939379      -0.01391000      -0.00000000      -0.30465000
C        1.94440867      10.00000949       5.38752239       0.44972000       0.00000000      -0.14829000
C        4.04220315      10.00000949       0.31106417       1.06657000       0.00001000       0.11499000
C       24.34689095      10.00000949      15.89051023       0.49447000      -0.00003000      -1.06904000
C       23.30690439      10.00000949       3.76962082       0.94677000       0.00001000       0.41438000
C        3.02223512      10.00000949       6.20367207      -0.34246000       0.00001000      -1.34696000
C       17.52379792      10.00000949      14.17960442      -1.71469000       0.00001000      -0.01344000
C       22.61428799      10.00000949      10.70079362       0.53585000      -0.00001000       2.20535000
C       14.32168907      10.00000949      13.84519933      -0.11942000      -0.00000000       0.87575000
C       16.69591002      10.00000949       4.88761670       0.29587000       0.00002000       0.60913000
C       23.25519801      10.00000949       8.40877519       1.20076000      -0.00001000      -0.72258000
C       20.19629483      10.00000949      13.04680904       0.86121000      -0.00001000      -0.65236000
C        3.73809253      10.00000949       8.58431831      -0.54873000       0.00000000       0.21895000
C        5.63777690      10.00000949      15.29470383       0.24387000      -0.00000000      -0.69279000
C        3.93932749      10.00000949      13.48079356       0.03004000      -0.00002000       0.96832000
C       17.05739080      10.00000949      19.03400683      -0.21365000      -0.00001000       0.48199000
C       16.99360007      10.00000949       3.57633945       0.43716000      -0.00000000      -1.41301000
C        5.35864060      10.00000949      18.79000550      -0.33446000       0.00001000       1.20600000
C        8.41354008      10.00000949       3.82678914       1.65071000       0.00002000       0.35333000
C       17.98839848      10.00000949      16.36580648      -0.22542000       0.00001000       0.31642000
C       22.66828917      10.00000949      20.69000653       0.39096000      -0.00001000       1.08446000
C       19.89111004      10.00000949       1.85422832       0.72271000      -0.00002000      -0.60905000
C       23.22780682      10.00000949       2.38521294      -1.81148000       0.00001000      -0.44952000
C       23.99019509      10.00000949       0.05490611      -0.19264000       0.00002000      -0.71823000
C       10.91849174      10.00000949       0.67788015       1.01382000      -0.00001000      -0.19847000
C       20.92999802      10.00000949       2.78847794       0.05657000       0.00002000       0.11456000
C       21.10889524      10.00000949       4.22576229       0.01730000      -0.00003000       0.07454000
C        3.07020633      10.00000949      20.47649215      -0.54521000       0.00000000      -0.61645000
C       16.39380125      10.00000949      14.99579639       0.20212000      -0.00000000      -0.47404000
C       21.24099306      10.00000949      10.73419818      -1.39644000      -0.00000000       1.26434000
C       22.70429809      10.00000949       6.15345951       0.14290000       0.00000000       0.58619000
C       13.46399311      10.00000949      10.29490698      -0.35890000      -0.00000000      -0.19858000
C       16.13858953      10.00000949       7.87962994       1.48757000       0.00001000      -0.10410000
C       15.74048951      10.00000949      18.42629742      -0.04023000      -0.00000000      -0.56628000
C       19.86708782      10.00000949       6.59194731       1.05452000       0.00002000       0.19912000
C       13.12619278      10.00000949      20.93089997       0.76452000       0.00000000       0.02780000
C       18.91488979      10.00000949      10.98900315       0.61219000      -0.00003000       0.10102000
C        4.09915829      10.00000949      17.00180406       0.70426000      -0.00001000       1.17712000
C       15.50290385      10.00000949      17.10009383       0.66542000      -0.00001000      -0.03586000
C       16.43889175      10.00000949      10.47260660       1.02862000       0.00001000      -0.44169000
C       18.85729993      10.00000949      17.37430727      -0.25956000      -0.00001000      -1.40437000
C       19.63980437      10.00000949      19.45388956      -2.05176000      -0.00002000       0.21319000
C       12.06340464      10.00000949      16.95529137      -1.66060000       0.00001000       0.21122000
C        0.14403570      10.00000949       4.16430212       2.03234000       0.00001000       0.02583000
C        5.34592151      10.00000949       0.16336525      -1.27485000      -0.00001000      -0.56217000
C       22.35480402      10.00000949      14.47950555       0.66787000       0.00002000      -0.21202000
C        0.76949240      10.00000949      20.45890189       0.48112000       0.00001000       0.69049000
C       22.13140221      10.00000949       7.48465265      -0.41726000       0.00001000       0.78348000
C       24.21139974      10.00000949       1.44089965       0.35880000      -0.00001000       0.01482000
C       21.99459271      10.00000949       1.88367930      -0.64399000       0.00002000       0.41317000
C        1.99052451      10.00000949      16.08550410      -0.70689000      -0.00001000      -1.54226000
C       10.71579201      10.00000949      13.53180953       0.67626000      -0.00002000      -1.33318000
C       18.57589324      10.00000949      15.09440329      -0.06099000       0.00000000      -0.02215000
C       17.80320275      10.00000949      10.15429067       0.38067000      -0.00000000       0.66855000
C       13.05148952      10.00000949      16.00569256       1.22551000      -0.00001000      -0.11256000
C       16.65540914      10.00000949      16.33589036       0.08986000      -0.00000000      -0.78253000
C        9.20239186      10.00000949      11.76889407       0.25110000      -0.00000000       0.36685000
C       14.37149124      10.00000949       0.44654295      -0.48452000      -0.00001000       0.40650000
C       19.79560705      10.00000949       8.81683946      -0.42733000      -0.00000000       0.12833000
C       20.96891207      10.00000949      18.89561044       0.82732000      -0.00001000      -0.38566000
C       15.06488885      10.00000949      14.92809928       0.93219000       0.00000000       0.87738000
C       18.60450507      10.00000949       2.13480554      -1.36157000      -0.00002000       0.37710000
C        9.85492239      10.00000949       1.67583101      -0.83459000       0.00001000      -0.54721000
C       22.33271041      10.00000949      19.35029311      -0.10080000      -0.00001000       0.43947000
C       21.67410108      10.00000949       0.51660797      -0.03345000      -0.00001000       0.21287000
C       20.27570976      10.00000949       0.51180871      -0.48298000       0.00000000       1.66821000
C       14.23329021      10.00000949       9.18278861      -0.84917000      -0.00001000       1.03744000
C        1.91482032      10.00000949       0.03281259       0.82114000       0.00002000       1.07526000
C       14.56979666      10.00000949       4.20834118       0.30789000      -0.00000000       0.21762000
C       15.26749093      10.00000949       6.71949779      -0.68063000      -0.00000000      -0.64363000
C       19.22449330      10.00000949      20.77550531       1.00111000      -0.00001000       0.44943000
C       15.45029420      10.00000949       5.32726732       0.94981000      -0.00001000      -0.33744000
C        6.65947824      10.00000949      10.86020528      -0.75134000      -0.00001000       0.75721000
C       12.62770721      10.00000949      12.34190925      -0.33191000      -0.00000000      -1.05977000
C       10.60500659      10.00000949      20.40739966      -1.25059000      -0.00002000       0.03665000
C       17.55619374      10.00000949       7.80309543       0.57966000      -0.00000000      -0.06345000
C       18.44360011      10.00000949       6.75298692      -1.28365000       0.00000000      -1.27416000
C       17.41860303      10.00000949       1.40013763       2.29602000       0.00001000      -0.00808000
C       13.40000708      10.00000949       8.07136793      -0.78813000      -0.00002000      -0.42448000
C        8.58677352      10.00000949      13.11890371      -1.26237000       0.00002000      -0.00524000
C       15.00859287      10.00000949       2.85731672       0.88058000      -0.00000000      -1.83230000