8
Lattice="2.5674848 0.0 0.0 0.0 2.5674848 0.0 0.0 0.0 25.41680279" Properties=species:S:1:pos:R:3:forces:R:3 energy=-28.79358018 config_type=low-index-surfaces stress="-0.0910987907973754 0.0 0.0 0.0 -0.0910987907973754 0.0 0.0 0.0 -0.020875693352652932" pbc="T T T"
Cu       0.00000000       0.00000000      25.40435961       0.00000000       0.00000000      -0.00617800
Cu       1.28374240       1.28374240      23.63645067      -0.00000000       0.00000000      -0.00783700
Cu       0.00000000       0.00000000      21.80546560      -0.00000000       0.00000000      -0.00422300
Cu       1.28374240       1.28374240      19.97610404      -0.00000000       0.00000000      -0.00068200
Cu       0.00000000       0.00000000      18.14910014      -0.00000000      -0.00000000       0.00068200
Cu       1.28374240       1.28374240      16.31973858       0.00000000      -0.00000000       0.00422300
Cu       0.00000000       0.00000000      14.48875352      -0.00000000      -0.00000000       0.00783700
Cu       1.28374240       1.28374240      12.72084457      -0.00000000      -0.00000000       0.00617800
10
Lattice="2.5674848 0.0 0.0 0.0 3.63097183 0.0 0.0 0.0 23.10736321" Properties=species:S:1:pos:R:3:forces:R:3 energy=-35.68693507 config_type=low-index-surfaces stress="-0.06923826596463997 0.0 0.0 0.0 -0.06663833893621009 0.0 0.0 0.0 -0.008651011501493368" pbc="T T T"
Cu       0.00000000       0.00000000      23.04230017      -0.00000000      -0.00000000      -0.00830600
Cu       1.28374240       1.81548592      21.88460136      -0.00000000      -0.00000000      -0.00825000
Cu       0.00000000       0.00000000      20.53791898       0.00000000      -0.00000000       0.00059000
Cu       1.28374240       1.81548592      19.26853312       0.00000000      -0.00000000       0.00979700
Cu       0.00000000       0.00000000      17.97000125      -0.00000000       0.00000000       0.00365800
Cu       1.28374240       1.81548592      16.69104357       0.00000000       0.00000000      -0.00365800
Cu       0.00000000       0.00000000      15.39251169      -0.00000000       0.00000000      -0.00979700
Cu       1.28374240       1.81548592      14.12312584      -0.00000000      -0.00000000      -0.00059000
Cu       0.00000000       0.00000000      12.77644346       0.00000000       0.00000000       0.00825000
Cu       1.28374240       1.81548592      11.61874465       0.00000000       0.00000000       0.00830600
6
Lattice="2.5674848 0.0 0.0 1.2837424 2.22350706063041 0.0 1.28374240187617 0.74116902129335 23.05976817850435" Properties=species:S:1:pos:R:3:forces:R:3 energy=-21.5648164 config_type=low-index-surfaces stress="-0.10112980457767067 0.0 -0.0 0.0 -0.10112980457767067 -0.0 -0.0 -0.0 -0.028655447505580096" pbc="T T T"
Cu       3.85122720       2.22350706       0.01372145       0.00000000       0.00000000       0.00364800
Cu       2.56748608       1.48233878       2.09379898      -0.00000000      -0.00000000      -0.00563900
Cu       1.28374112       0.74116828       4.18940848       0.00000000       0.00000000       0.00010500
Cu       3.85122720       2.22350706       6.29229385      -0.00000000      -0.00000000      -0.00010500
Cu       2.56748608       1.48233878       8.38790334       0.00000000       0.00000000       0.00563900
Cu       1.28374112       0.74116828      10.46798087      -0.00000000      -0.00000000      -0.00364800
16
Lattice="3.63097183 0.0 0.0 1.81548591200911 4.05954991184686 0.0 1.81548591125689 0.81190998366091 25.98111945262953" Properties=species:S:1:pos:R:3:forces:R:3 energy=-57.02675949 config_type=low-index-surfaces stress="-0.02551358570776585 0.0 -0.0 0.0 -0.02430872236829751 0.0005120838921224425 -0.0 0.0005120838921224425 0.0011857231888933756" pbc="T T T"
Cu       1.81548591       0.82681439       1.58211410       0.00000000      -0.00236800      -0.00709100
Cu       1.81548591       4.04135811       0.13796525       0.00000000      -0.00239000      -0.00212600
Cu       3.63097183       2.43405567       0.82086030       0.00000000      -0.00139900      -0.00457600
Cu       1.81548591       3.22661365       2.45246829       0.00000000      -0.00074600      -0.00098200
Cu       1.81548591       2.43390877       4.87622097      -0.00000000       0.00095100      -0.00308700
Cu       3.63097183       1.60711659       3.25606023      -0.00000000       0.00127300      -0.00251300
Cu       3.63097183       4.05535728       4.05711657      -0.00000000       0.00280800      -0.00771700
Cu       3.63097183       0.80946839       5.68582661       0.00000000      -0.00165400       0.00255800
Cu       5.44645774       4.06374255       8.12153317       0.00000000      -0.00280800       0.00771700
Cu       3.63097183       3.25008152       6.49282313      -0.00000000       0.00165400      -0.00255800
Cu       1.81548591       1.62564114       7.30242877       0.00000000      -0.00095100       0.00308700
Cu       3.63097183       2.45243332       8.92258951       0.00000000      -0.00127300       0.00251300
Cu       3.63097183       1.62549424      11.35778944      -0.00000000       0.00139900       0.00457600
Cu       1.81548591       0.83293626       9.72618146      -0.00000000       0.00074600       0.00098200
Cu       5.44645774       3.23273553      10.59653564      -0.00000000       0.00236800       0.00709100
Cu       3.63097183       4.07774171      12.04068449      -0.00000000       0.00239000       0.00212600
20
Lattice="2.5674848 0.0 0.0 0.0 6.28902769 0.0 0.0 0.0 26.68208474" Properties=species:S:1:pos:R:3:forces:R:3 energy=-71.95972335 config_type=low-index-surfaces stress="-0.025355683084903644 0.0 0.0 0.0 -0.019677386191813934 -0.0001260342793296181 0.0 -0.0001260342793296181 -0.0025771340888630125" pbc="T T T"
Cu       0.00000000       6.25344905       0.12048209      -0.00000000       0.00139500      -0.00248500
Cu       0.00000000       2.12365268       1.42491529      -0.00000000      -0.00034300       0.00561300
Cu       1.28374240       0.04093796       2.23985860      -0.00000000      -0.00525000       0.00212900
Cu       1.28374240       4.19700571       0.75956994      -0.00000000       0.00100000       0.00405700
Cu       0.00000000       4.19181659       2.96676272      -0.00000000       0.00279700       0.00399700
Cu       0.00000000       6.28562469       4.44458057      -0.00000000       0.00367700       0.00486000
Cu       1.28374240       4.18961194       5.19013430       0.00000000      -0.00076900      -0.00051000
Cu       1.28374240       2.10191798       3.70027113      -0.00000000       0.00041400      -0.00272700
Cu       0.00000000       2.09433595       5.92746387       0.00000000      -0.00016600      -0.00079700
Cu       0.00000000       4.19226251       7.41438396      -0.00000000       0.00013300      -0.00333800
Cu       1.28374240       2.09834498       8.15475345      -0.00000000       0.00016600       0.00079700
Cu       1.28374240       0.00042471       6.66783336       0.00000000      -0.00013300       0.00333800
Cu       0.00000000       0.00307528       8.89205634      -0.00000000       0.00076900       0.00051000
Cu       0.00000000       2.09076295      10.38194619       0.00000000      -0.00041400       0.00272700
Cu       1.28374240       0.00087063      11.11545460       0.00000000      -0.00279700      -0.00399700
Cu       1.28374240       4.19609022       9.63763675       0.00000000      -0.00367700      -0.00486000
Cu       0.00000000       4.15174926      11.84233204       0.00000000       0.00525000      -0.00212900
Cu       0.00000000       6.28470920      13.32264738       0.00000000      -0.00100000      -0.00405700
Cu       1.28374240       4.22826586      13.96173523       0.00000000      -0.00139500       0.00248500
Cu       1.28374240       2.06902826      12.65730203       0.00000000       0.00034300      -0.00561300
20
Lattice="2.5674848 0.0 0.0 0.0 7.7024544 0.0 0.0 -0.85582826816878 24.20647884555615" Properties=species:S:1:pos:R:3:forces:R:3 energy=-71.35037683 config_type=low-index-surfaces stress="-0.02296790914701408 0.0 0.0 0.0 -0.022709608506258135 0.00028752527451393405 0.0 0.00028752527451393405 -0.0017281806477232816" pbc="T T T"
Cu       0.00000000      -0.82014701      24.08973026       0.00000000      -0.00347900      -0.00195500
Cu       0.00000000       3.39762549      23.00135914      -0.00000000      -0.00181200       0.00302900
Cu       1.28374240       5.50667566      22.43718110       0.00000000       0.00124700       0.00049400
Cu       1.28374240       1.28179066      23.56386106       0.00000000       0.00162200      -0.00076900
Cu       0.00000000      -0.02293790      21.74910762       0.00000000      -0.00197200      -0.00258300
Cu       0.00000000       4.28519409      20.57900717      -0.00000000      -0.00251200      -0.00187300
Cu       1.28374240       6.40793748      19.96451549       0.00000000       0.00171300       0.00174600
Cu       1.28374240       2.14084180      21.17486212       0.00000000      -0.00001800       0.00241900
Cu       0.00000000       0.85881895      19.36167228       0.00000000       0.00055200       0.00022600
Cu       0.00000000       5.13019322      18.14944040      -0.00000000      -0.00083500      -0.00004300
Cu       1.28374240      -0.43090482      17.55320796      -0.00000000      -0.00055200      -0.00022600
Cu       1.28374240       3.00017531      18.76543984       0.00000000       0.00083500       0.00004300
Cu       0.00000000       1.72243105      16.95036475      -0.00000000      -0.00171300      -0.00174600
Cu       0.00000000       5.98952673      15.74001812      -0.00000000       0.00001800      -0.00241900
Cu       1.28374240       0.45085204      15.16577262      -0.00000000       0.00197200       0.00258300
Cu       1.28374240       3.84517444      16.33587307       0.00000000       0.00251200       0.00187300
Cu       0.00000000       2.62369287      14.47769914      -0.00000000      -0.00124700      -0.00049400
Cu       0.00000000       6.84857788      13.35101918      -0.00000000      -0.00162200       0.00076900
Cu       1.28374240       1.24806114      12.82514998      -0.00000000       0.00347900       0.00195500
Cu       1.28374240       4.73274304      13.91352110       0.00000000       0.00181200      -0.00302900
24
Lattice="3.63097183 0.0 0.0 0.0 5.74107055 0.0 0.0 -2.29642821811992 24.11249629474263" Properties=species:S:1:pos:R:3:forces:R:3 energy=-85.83395667 config_type=low-index-surfaces stress="-0.01725175516959863 0.0 0.0 0.0 -0.021431039930800047 -0.0005937239138209246 0.0 -0.0005937239138209246 -0.0024050364497560602" pbc="T T T"
Cu       0.00000000       1.16348982       2.31390455       0.00000000       0.00371200      -0.00147500
Cu       0.00000000       3.42944576       1.13023707       0.00000000      -0.00239600      -0.00136600
Cu       0.00000000       0.03847666       0.14334791       0.00000000      -0.00089400       0.00078100
Cu       1.81548592       5.12127812       1.67944135      -0.00000000       0.00298100      -0.00175700
Cu       1.81548592       1.71801854       0.64917953       0.00000000       0.00236100       0.00217000
Cu       1.81548592       2.89191470       2.87005029       0.00000000      -0.00084200       0.00191900
Cu       0.00000000       0.00402773       5.74449719      -0.00000000      -0.00436200       0.00273100
Cu       0.00000000       2.29966565       4.59136580       0.00000000      -0.00619100      -0.00079100
Cu       0.00000000       4.60116355       3.44488698      -0.00000000       0.00068700       0.00145600
Cu       1.81548592       4.02015937       5.16565379      -0.00000000      -0.00448200      -0.00145100
Cu       1.81548592       0.57461213       4.01834633      -0.00000000      -0.00321200       0.00067900
Cu       1.81548592       1.72344915       6.31914918      -0.00000000      -0.00216800       0.00074000
Cu       0.00000000       4.59235366       9.18611478       0.00000000       0.00321200      -0.00067900
Cu       0.00000000       1.14680069       8.03880732       0.00000000       0.00448200       0.00145100
Cu       0.00000000       3.44351664       6.88531192       0.00000000       0.00216800      -0.00074000
Cu       1.81548592       2.86729440       8.61309530      -0.00000000       0.00619100       0.00079100
Cu       1.81548592      -0.57813249       7.45996392      -0.00000000       0.00436200      -0.00273100
Cu       1.81548592       0.56580224       9.75957413       0.00000000      -0.00068700      -0.00145600
Cu       0.00000000       3.44894495      12.55530569       0.00000000      -0.00236100      -0.00217000
Cu       0.00000000       0.04568193      11.52501976       0.00000000      -0.00298100       0.00175700
Cu       0.00000000       2.27505109      10.33441082      -0.00000000       0.00084200      -0.00191900
Cu       1.81548592       1.73752003      12.07422403      -0.00000000       0.00239600       0.00136600
Cu       1.81548592       4.00347023      10.89055655       0.00000000      -0.00371200       0.00147500
Cu       1.81548592      -0.61258142      13.06111320      -0.00000000       0.00089400      -0.00078100
12
Lattice="2.5674848 0.0 0.0 1.28374239956467 4.25769186708471 0.0 1.2837423985714 0.38706289659454 26.27470074456631" Properties=species:S:1:pos:R:3:forces:R:3 energy=-42.88813512 config_type=low-index-surfaces stress="-0.03878489092365367 0.0 -0.0 0.0 -0.027119095342444714 0.001071082479311164 -0.0 0.001071082479311164 -0.0011524825195084562" pbc="T T T"
Cu       2.56748480       0.00295667       0.11045553      -0.00000000       0.00160800      -0.00202300
Cu       2.56748480       2.32820513       1.05364552       0.00000000      -0.00620800       0.00506800
Cu       1.28374240       0.42258651       2.19273917      -0.00000000       0.00143700      -0.00166600
Cu       1.28374240       2.72630020       3.28383109       0.00000000       0.00079300      -0.00257700
Cu       2.56748480       0.78198406       4.37272406      -0.00000000      -0.00056700       0.00379000
Cu       2.56748480       3.09913050       5.48081914      -0.00000000      -0.00183400       0.00546800
Cu       1.28374240       1.15855981       6.56174328       0.00000000       0.00183400      -0.00546800
Cu       3.85122720       3.47571091       7.66986463       0.00000000       0.00056700      -0.00379000
Cu       2.56748480       1.53139012       8.75873132      -0.00000000      -0.00079300       0.00257700
Cu       2.56748480       3.83510381       9.84982325       0.00000000      -0.00143700       0.00166600
Cu       1.28374240       1.92948983      10.98894317      -0.00000000       0.00620800      -0.00506800
Cu       3.85122720       4.25473365      11.93210688       0.00000000      -0.00160800       0.00202300
24
Lattice="3.63097183 0.0 0.0 -1.81548591416228 6.54582755203595 0.0 0.0 -3.02115117860144 24.16920942028492" Properties=species:S:1:pos:R:3:forces:R:3 energy=-85.20725406 config_type=low-index-surfaces stress="-0.01689125684966589 -0.0 -0.0 -0.0 -0.01545258599697837 -0.000634105615410625 -0.0 -0.000634105615410625 -0.002604696832247026" pbc="T T T"
Cu       0.00000000       3.00774622       1.96051350      -0.00000000      -0.00470600       0.00463300
Cu       0.00000000      -0.00524614       0.14524869       0.00000000       0.00544100       0.00596400
Cu       1.81548592       1.51432371       1.01119441       0.00000000       0.00096500      -0.00014800
Cu       1.81548592       4.03228305       0.58745801      -0.00000000      -0.00041500       0.00198800
Cu       0.00000000       5.52896665       1.48293460      -0.00000000      -0.00523400      -0.00174900
Cu       0.00000000       0.51948583       2.53391199       0.00000000       0.00434500       0.00203700
Cu       0.00000000       1.00869687       5.03133699      -0.00000000      -0.00241400      -0.00273000
Cu       1.81548592       4.53291187       3.03089823       0.00000000       0.00057300       0.00187400
Cu       1.81548592      -0.50334586       4.02900840      -0.00000000      -0.00008500       0.00007400
Cu       1.81548592       2.02472357       3.52542952       0.00000000       0.00178900       0.00676800
Cu       0.00000000       3.52380596       4.52678030      -0.00000000      -0.00156700       0.00086400
Cu       1.81548592       5.03437743       5.53722575       0.00000000       0.00106900      -0.00226000
Cu       1.81548592       5.52816338       8.05562514      -0.00000000      -0.00184800      -0.00714100
Cu       1.81548592       2.51850149       6.04388219      -0.00000000      -0.00103500       0.00189900
Cu       0.00000000       4.02906728       7.05429709       0.00000000       0.00159200      -0.00130500
Cu       1.81548592      -0.00164431       6.54972158       0.00000000       0.00242500       0.00242900
Cu       0.00000000       1.51039590       7.55208640       0.00000000       0.00011200      -0.00038200
Cu       1.81548592       3.01996548       8.55019231      -0.00000000      -0.00036000      -0.00196300
Cu       1.81548592       3.52060091      10.99359636       0.00000000       0.00026100      -0.00150400
Cu       1.81548592       0.48756375       9.04717282      -0.00000000      -0.00430100      -0.00206200
Cu       0.00000000       2.02390735      10.09816344       0.00000000       0.00483300       0.00165900
Cu       0.00000000       4.54513271       9.62053583       0.00000000       0.00468000      -0.00457800
Cu       0.00000000      -0.50727764      10.56988131      -0.00000000      -0.00087200       0.00048800
Cu       1.81548592       1.01229211      11.43585930      -0.00000000      -0.00524700      -0.00485300
30
Lattice="4.44701412 0.0 0.0 -1.48233804164999 5.5464010845191 0.0 0.0 -2.37702903239606 26.20128707578064" Properties=species:S:1:pos:R:3:forces:R:3 energy=-107.6738601 config_type=low-index-surfaces stress="-0.01426087542378515 -0.000188177148139893 0.00033039704523336855 -0.000188177148139893 -0.01488877216889004 0.00035399462363262335 0.00033039704523336855 0.00035399462363262335 -0.0016322251555990735" pbc="T T T"
Cu       0.00833860       0.04090426       0.15162237      -0.00196900      -0.00258700       0.00112100
Cu      -0.00198179       2.37943467       0.97292644      -0.00454400      -0.00150300      -0.00048400
Cu       0.02278179       4.71091971       1.90485075      -0.00193400      -0.00190600      -0.00182400
Cu       2.22703015       3.55131662       1.42089859      -0.00296700      -0.00278400       0.00379400
Cu       3.69793002       0.37290241       2.44705235       0.00323900       0.00167500       0.00197700
Cu       2.22910051       1.18596453       0.55419521      -0.00186500      -0.00189600       0.00190700
Cu       1.47432207       1.58277685       2.92156247      -0.00044300       0.00074200       0.00294300
Cu       1.47631278       3.95690162       3.87916817       0.00389800      -0.00112400       0.00147600
Cu       2.96339528       0.79161482       4.84848816       0.00840800      -0.00145700       0.00190800
Cu      -0.73998399       5.14586481       4.36374661       0.00370500       0.00230100       0.00058500
Cu       0.73765932       1.98010786       5.33868107       0.00256700       0.00843800      -0.00296100
Cu      -0.74669823       2.77455492       3.39720579      -0.00020300       0.00398200       0.00071900
Cu       2.96178199       3.17087916       5.82121148       0.00409800      -0.00287200       0.00671600
Cu      -0.00067050       0.00069032       6.79484530      -0.00066900      -0.00314800       0.00369100
Cu       0.00002127       2.37848297       7.76296012       0.00479000      -0.00341400       0.00313600
Cu       2.22417756       1.18782182       7.27621530       0.00066900       0.00314800      -0.00369100
Cu       2.22639966       3.56403961       8.24984913      -0.00409800       0.00287200      -0.00671600
Cu       0.74114626       4.35643580       6.30810048      -0.00479000       0.00341400      -0.00313600
Cu       1.48584774      -0.79159572       8.73237954      -0.00256700      -0.00843800       0.00296100
Cu       1.48115301       1.58904841       9.70731400      -0.00370500      -0.00230100      -0.00058500
Cu       1.48787022       3.96036385      10.67385482       0.00020300      -0.00398200      -0.00071900
Cu      -0.73514080       2.77801715      10.19189244      -0.00389800       0.00112400      -0.00147600
Cu       0.74918499      -0.39426470      11.14949813       0.00044300      -0.00074200      -0.00294300
Cu       3.70712590       0.39689732       9.22257244      -0.00840800       0.00145700      -0.00190800
Cu       2.97259116       0.81560974      11.62400825      -0.00323900      -0.00167500      -0.00197700
Cu       2.96115150       3.18360215      12.65016201       0.00296700       0.00278400      -0.00379400
Cu      -0.00559345       0.00254524      13.51689160       0.00186500       0.00189600      -0.00190700
Cu       0.74315080       4.35547856      13.09813417       0.00454400       0.00150300       0.00048400
Cu       2.21516846       1.14760788      13.91943823       0.00196900       0.00258700      -0.00112100
Cu       0.71838574       2.02399906      12.16620986       0.00193400       0.00190600       0.00182400
30
Lattice="2.5674848 0.0 0.0 0.0 10.58601103 0.0 0.0 -1.24541306312975 23.77728058279008" Properties=species:S:1:pos:R:3:forces:R:3 energy=-107.586026 config_type=low-index-surfaces stress="-0.016795874297542552 0.0 0.0 0.0 -0.018312958744447546 -8.233620633995115e-05 0.0 -8.233620633995115e-05 -0.0017341821681884995" pbc="T T T"
Cu       0.00000000      10.49610553       0.11848739      -0.00000000      -0.00046300      -0.00361400
Cu       0.00000000       1.90168068       1.68655592       0.00000000      -0.00125600       0.00587000
Cu       0.00000000       6.22677597       0.91242599      -0.00000000      -0.00013900       0.00470600
Cu       1.28374240      10.30832221       2.22468319      -0.00000000       0.00475100       0.00633500
Cu       1.28374240       4.07104815       1.32437346      -0.00000000      -0.00287900      -0.00045000
Cu       1.28374240       8.36575635       0.48230561       0.00000000       0.00128100       0.00414100
Cu       0.00000000       8.10182189       2.67171161      -0.00000000      -0.00099200      -0.00041000
Cu       0.00000000       9.96535070       4.40709641      -0.00000000       0.00035400      -0.00147100
Cu       0.00000000       3.73011410       3.49841634       0.00000000      -0.00316400       0.00270800
Cu       1.28374240       7.78094407       4.86432387       0.00000000      -0.00497400      -0.00004100
Cu       1.28374240       1.56339876       3.94262516       0.00000000       0.00138300       0.00448100
Cu       1.28374240       5.91915857       3.09341117      -0.00000000       0.00593500      -0.00606000
Cu       0.00000000       5.60044603       5.28320282       0.00000000       0.00061900       0.00145800
Cu       0.00000000       7.47210392       7.06702132      -0.00000000       0.00265800      -0.00342400
Cu       0.00000000       1.24475695       6.15436837      -0.00000000       0.00789100      -0.00385300
Cu       1.28374240       5.29692262       7.48607661      -0.00000000      -0.00061900      -0.00145800
Cu       1.28374240       9.65260112       6.61491106       0.00000000      -0.00789100       0.00385300
Cu       1.28374240       3.42526473       5.70225811       0.00000000      -0.00265800       0.00342400
Cu       0.00000000       3.11641400       7.90495556       0.00000000       0.00497400       0.00004100
Cu       0.00000000       4.97821009       9.67586826      -0.00000000      -0.00593500       0.00606000
Cu       0.00000000       9.33396989       8.82665427      -0.00000000      -0.00138300      -0.00448100
Cu       1.28374240       2.79554676      10.09756782       0.00000000       0.00099200       0.00041000
Cu       1.28374240       7.16724397       9.27086309      -0.00000000       0.00316400      -0.00270800
Cu       1.28374240       0.93201796       8.36218302       0.00000000      -0.00035400       0.00147100
Cu       0.00000000       0.58903586      10.54459624      -0.00000000      -0.00475100      -0.00633500
Cu       0.00000000       2.53160048      12.28699760      -0.00000000      -0.00128100      -0.00414100
Cu       0.00000000       6.82632050      11.44490597       0.00000000       0.00287900       0.00045000
Cu       1.28374240       0.40126312      12.65079204       0.00000000       0.00046300       0.00361400
Cu       1.28374240       4.67059269      11.85685345       0.00000000       0.00013900      -0.00470600
Cu       1.28374240       8.99567739      11.08272351      -0.00000000       0.00125600      -0.00587000
15
Lattice="2.5674848 0.0 0.0 1.28374240118755 5.59570339702441 0.0 1.28374240093544 0.29451070447797 24.99006199020587" Properties=species:S:1:pos:R:3:forces:R:3 energy=-53.53489593 config_type=low-index-surfaces stress="-0.02859869596731479 -0.0 0.0 -0.0 -0.027303314251472033 0.0011828003772464612 0.0 0.0011828003772464612 -0.0023589439163126864" pbc="T T T"
Cu       2.56748480       0.02314863       0.11736431      -0.00000000      -0.00444600       0.00493200
Cu       1.28374240       2.06317578       0.83577506      -0.00000000      -0.00275500       0.00195000
Cu       2.56748480       4.08590785       1.62728524      -0.00000000      -0.00296100      -0.00217600
Cu       2.56748480       0.57974667       2.52221877       0.00000000       0.00001900       0.00447000
Cu       1.28374240       2.65431209       3.33335902       0.00000000       0.00056100       0.00013500
Cu       2.56748480       4.70517448       4.16313702       0.00000000       0.00396100       0.00474000
Cu       2.56748480       1.17646961       4.99801565       0.00000000       0.00431200      -0.00144000
Cu       1.28374240       3.23961952       5.83100613       0.00000000       0.00000000      -0.00000000
Cu       2.56748480       5.30276414       6.66402160      -0.00000000      -0.00431200       0.00144000
Cu       2.56748480       1.77405926       7.49890024      -0.00000000      -0.00396100      -0.00474000
Cu       1.28374240       3.82492696       8.32865325      -0.00000000      -0.00056100      -0.00013500
Cu       1.28374240       0.30378367       9.13981849      -0.00000000      -0.00001900      -0.00447000
Cu       2.56748480       2.39332590      10.03475202       0.00000000       0.00296100       0.00217600
Cu       3.85122720       4.41606326      10.82623721       0.00000000       0.00275500      -0.00195000
Cu       1.28374240       0.86038172      11.54467295       0.00000000       0.00444600      -0.00493200
36
Lattice="2.5674848 0.0 0.0 0.0 12.04257117 0.0 0.0 0.0 25.54615122" Properties=species:S:1:pos:R:3:forces:R:3 energy=-129.4953143 config_type=low-index-surfaces stress="-0.014591579143076438 0.0 0.0 0.0 -0.010709571410287855 0.00013669433606712522 0.0 0.00013669433606712522 -0.001337292704464046" pbc="T T T"
Cu       0.00000000       7.66244268      24.73622612       0.00000000       0.00285600      -0.00454300
Cu       0.00000000      11.97379270      25.42332208      -0.00000000       0.00065400       0.00113200
Cu       0.00000000       3.32324296      24.00868072       0.00000000      -0.00055300      -0.00268700
Cu       1.28374240       9.82652708      25.10741744      -0.00000000       0.00084200      -0.00014800
Cu       1.28374240       1.16470729      23.65251796      -0.00000000       0.00013500       0.00085900
Cu       1.28374240       5.49283758      24.36878244      -0.00000000       0.00114700      -0.00628800
Cu       0.00000000       6.56631022      22.43997311       0.00000000       0.00025900      -0.00090100
Cu       0.00000000      10.97256351      23.17812303       0.00000000       0.00412100       0.00420000
Cu       0.00000000       2.18809837      21.68497677       0.00000000      -0.00718500       0.00440100
Cu       1.28374240       8.76334703      22.81453653      -0.00000000       0.00032700      -0.00049300
Cu       1.28374240       0.01816516      21.27930354      -0.00000000       0.00468200       0.00138700
Cu       1.28374240       4.37285953      22.06856367      -0.00000000      -0.00491400       0.00017200
Cu       0.00000000       5.46672021      20.13412595       0.00000000      -0.00548900      -0.00580400
Cu       0.00000000       9.86086406      20.89102208      -0.00000000      -0.00249500      -0.00391800
Cu       0.00000000       1.10129240      19.34661449       0.00000000      -0.00509000      -0.00031100
Cu       1.28374240       7.66116158      20.51396330       0.00000000       0.00485400      -0.00156200
Cu       1.28374240      10.95232397      18.96323255       0.00000000      -0.00087600       0.00154200
Cu       1.28374240       3.28250767      19.74446092      -0.00000000       0.00138500      -0.00515400
Cu       0.00000000       4.38093904      17.80064089       0.00000000      -0.00138500       0.00515400
Cu       0.00000000       8.75370596      18.58186926      -0.00000000       0.00087600      -0.00154200
Cu       0.00000000       0.00229718      17.03113851      -0.00000000      -0.00485400       0.00156200
Cu       1.28374240       6.56216636      18.19848732       0.00000000       0.00509000       0.00031100
Cu       1.28374240       9.84516587      16.65407973       0.00000000       0.00249500       0.00391800
Cu       1.28374240       2.19672650      17.41097586      -0.00000000       0.00548900       0.00580400
Cu       0.00000000       3.29058719      15.47653814       0.00000000       0.00491400      -0.00017200
Cu       0.00000000       7.64529360      16.26579827      -0.00000000      -0.00468200      -0.00138700
Cu       0.00000000      10.94268290      14.73056528       0.00000000      -0.00032700       0.00049300
Cu       1.28374240       5.47534834      15.86012504      -0.00000000       0.00718500      -0.00440100
Cu       1.28374240       8.73346642      14.36697878      -0.00000000      -0.00412100      -0.00420000